12
Step: 0 --- Kinetic Energy: 0.00000000 J/mol --- Potential Energy: -0.00174621 J/mol --- Total Energy: -0.00174621 J/mol
C     0.00000    1.39600    0.00000
C     1.20900    0.69800    0.00000
C     1.20900   -0.69800    0.00000
C     0.00000   -1.39600    0.00000
C    -1.20900   -0.69800    0.00000
C    -1.20900    0.69800    0.00000
H     0.00000    2.47900    0.00000
H     2.14700    1.24000    0.00000
H     2.14700   -1.24000    0.00000
H     0.00000   -2.47900    0.00000
H    -2.14700   -1.24000    0.00000
H    -2.14700    1.24000    0.00000
12
Step: 1 --- Kinetic Energy: 0.00000021 J/mol --- Potential Energy: -0.00174600 J/mol --- Total Energy: -0.00174579 J/mol
C     0.00000    1.39600    0.00000
C     1.20900    0.69800    0.00000
C     1.20900   -0.69800    0.00000
C     0.00000   -1.39600    0.00000
C    -1.20900   -0.69800    0.00000
C    -1.20900    0.69800    0.00000
H    -0.00000    2.47903    0.00000
H     2.14702    1.24001    0.00000
H     2.14702   -1.24001    0.00000
H     0.00000   -2.47903    0.00000
H    -2.14702   -1.24001    0.00000
H    -2.14702    1.24001    0.00000
12
Step: 2 --- Kinetic Energy: 0.00000084 J/mol --- Potential Energy: -0.00174537 J/mol --- Total Energy: -0.00174454 J/mol
C     0.00000    1.39599    0.00000
C     1.20899    0.69800    0.00000
C     1.20899   -0.69800    0.00000
C     0.00000   -1.39599    0.00000
C    -1.20899   -0.69800    0.00000
C    -1.20899    0.69800    0.00000
H    -0.00000    2.47910    0.00000
H     2.14709    1.24005    0.00000
H     2.14709   -1.24005    0.00000
H    -0.00000   -2.47910    0.00000
H    -2.14709   -1.24005    0.00000
H    -2.14709    1.24005    0.00000
12
Step: 3 --- Kinetic Energy: 0.00000188 J/mol --- Potential Energy: -0.00174433 J/mol --- Total Energy: -0.00174245 J/mol
C     0.00000    1.39598    0.00000
C     1.20899    0.69799    0.00000
C     1.20899   -0.69799    0.00000
C     0.00000   -1.39598    0.00000
C    -1.20899   -0.69799    0.00000
C    -1.20899    0.69799    0.00000
H    -0.00000    2.47923    0.00000
H     2.14720    1.24012    0.00000
H     2.14720   -1.24012    0.00000
H    -0.00000   -2.47923    0.00000
H    -2.14720   -1.24012    0.00000
H    -2.14720    1.24012    0.00000
12
Step: 4 --- Kinetic Energy: 0.00000334 J/mol --- Potential Energy: -0.00174287 J/mol --- Total Energy: -0.00173954 J/mol
C     0.00000    1.39597    0.00000
C     1.20898    0.69799    0.00000
C     1.20898   -0.69799    0.00000
C     0.00000   -1.39597    0.00000
C    -1.20898   -0.69799    0.00000
C    -1.20898    0.69799    0.00000
H    -0.00000    2.47941    0.00000
H     2.14735    1.24020    0.00000
H     2.14735   -1.24020    0.00000
H    -0.00000   -2.47941    0.00000
H    -2.14735   -1.24020    0.00000
H    -2.14735    1.24020    0.00000
12
Step: 5 --- Kinetic Energy: 0.00000521 J/mol --- Potential Energy: -0.00174100 J/mol --- Total Energy: -0.00173579 J/mol
C    -0.00000    1.39596    0.00000
C     1.20896    0.69798    0.00000
C     1.20896   -0.69798    0.00000
C    -0.00000   -1.39596    0.00000
C    -1.20896   -0.69798    0.00000
C    -1.20896    0.69798    0.00000
H    -0.00000    2.47964    0.00000
H     2.14755    1.24032    0.00000
H     2.14755   -1.24032    0.00000
H    -0.00000   -2.47964    0.00000
H    -2.14755   -1.24032    0.00000
H    -2.14755    1.24032    0.00000
12
Step: 6 --- Kinetic Energy: 0.00000749 J/mol --- Potential Energy: -0.00173872 J/mol --- Total Energy: -0.00173123 J/mol
C    -0.00000    1.39594    0.00000
C     1.20895    0.69797    0.00000
C     1.20895   -0.69797    0.00000
C    -0.00000   -1.39594    0.00000
C    -1.20895   -0.69797    0.00000
C    -1.20895    0.69797    0.00000
H    -0.00000    2.47992    0.00000
H     2.14780    1.24046    0.00000
H     2.14780   -1.24046    0.00000
H    -0.00000   -2.47992    0.00000
H    -2.14780   -1.24046    0.00000
H    -2.14780    1.24046    0.00000
12
Step: 7 --- Kinetic Energy: 0.00001018 J/mol --- Potential Energy: -0.00173603 J/mol --- Total Energy: -0.00172585 J/mol
C    -0.00000    1.39592    0.00000
C     1.20893    0.69796    0.00000
C     1.20893   -0.69796    0.00000
C    -0.00000   -1.39592    0.00000
C    -1.20893   -0.69796    0.00000
C    -1.20893    0.69796    0.00000
H    -0.00000    2.48025    0.00000
H     2.14808    1.24063    0.00000
H     2.14808   -1.24063    0.00000
H    -0.00000   -2.48025    0.00000
H    -2.14808   -1.24063    0.00000
H    -2.14808    1.24063    0.00000
12
Step: 8 --- Kinetic Energy: 0.00001327 J/mol --- Potential Energy: -0.00173294 J/mol --- Total Energy: -0.00171967 J/mol
C    -0.00000    1.39589    0.00000
C     1.20890    0.69794    0.00000
C     1.20890   -0.69794    0.00000
C    -0.00000   -1.39589    0.00000
C    -1.20890   -0.69794    0.00000
C    -1.20890    0.69794    0.00000
H    -0.00000    2.48064    0.00000
H     2.14841    1.24082    0.00000
H     2.14841   -1.24082    0.00000
H    -0.00000   -2.48064    0.00000
H    -2.14841   -1.24082    0.00000
H    -2.14841    1.24082    0.00000
12
Step: 9 --- Kinetic Energy: 0.00001676 J/mol --- Potential Energy: -0.00172945 J/mol --- Total Energy: -0.00171269 J/mol
C    -0.00000    1.39586    0.00000
C     1.20888    0.69793    0.00000
C     1.20888   -0.69793    0.00000
C    -0.00000   -1.39586    0.00000
C    -1.20888   -0.69793    0.00000
C    -1.20888    0.69793    0.00000
H    -0.00000    2.48107    0.00000
H     2.14879    1.24103    0.00000
H     2.14879   -1.24103    0.00000
H    -0.00000   -2.48107    0.00000
H    -2.14879   -1.24103    0.00000
H    -2.14879    1.24103    0.00000
12
Step: 10 --- Kinetic Energy: 0.00002064 J/mol --- Potential Energy: -0.00172556 J/mol --- Total Energy: -0.00170492 J/mol
C    -0.00000    1.39583    0.00000
C     1.20885    0.69791    0.00000
C     1.20885   -0.69791    0.00000
C    -0.00000   -1.39583    0.00000
C    -1.20885   -0.69791    0.00000
C    -1.20885    0.69791    0.00000
H    -0.00000    2.48156    0.00000
H     2.14921    1.24128    0.00000
H     2.14921   -1.24128    0.00000
H    -0.00000   -2.48156    0.00000
H    -2.14921   -1.24128    0.00000
H    -2.14921    1.24128    0.00000
12
Step: 11 --- Kinetic Energy: 0.00002492 J/mol --- Potential Energy: -0.00172129 J/mol --- Total Energy: -0.00169637 J/mol
C    -0.00000    1.39579    0.00000
C     1.20882    0.69790    0.00000
C     1.20882   -0.69790    0.00000
C    -0.00000   -1.39579    0.00000
C    -1.20882   -0.69790    0.00000
C    -1.20882    0.69790    0.00000
H    -0.00000    2.48209    0.00000
H     2.14967    1.24154    0.00000
H     2.14967   -1.24154    0.00000
H    -0.00000   -2.48209    0.00000
H    -2.14967   -1.24154    0.00000
H    -2.14967    1.24154    0.00000
12
Step: 12 --- Kinetic Energy: 0.00002958 J/mol --- Potential Energy: -0.00171663 J/mol --- Total Energy: -0.00168705 J/mol
C    -0.00000    1.39575    0.00000
C     1.20879    0.69788    0.00000
C     1.20879   -0.69788    0.00000
C    -0.00000   -1.39575    0.00000
C    -1.20879   -0.69788    0.00000
C    -1.20879    0.69788    0.00000
H    -0.00000    2.48268    0.00000
H     2.15018    1.24183    0.00000
H     2.15018   -1.24183    0.00000
H    -0.00000   -2.48268    0.00000
H    -2.15018   -1.24183    0.00000
H    -2.15018    1.24183    0.00000
12
Step: 13 --- Kinetic Energy: 0.00003461 J/mol --- Potential Energy: -0.00171159 J/mol --- Total Energy: -0.00167698 J/mol
C    -0.00000    1.39571    0.00000
C     1.20875    0.69785    0.00000
C     1.20875   -0.69785    0.00000
C    -0.00000   -1.39571    0.00000
C    -1.20875   -0.69785    0.00000
C    -1.20875    0.69785    0.00000
H    -0.00000    2.48331    0.00000
H     2.15072    1.24215    0.00000
H     2.15072   -1.24215    0.00000
H    -0.00000   -2.48331    0.00000
H    -2.15072   -1.24215    0.00000
H    -2.15072    1.24215    0.00000
12
Step: 14 --- Kinetic Energy: 0.00004001 J/mol --- Potential Energy: -0.00170619 J/mol --- Total Energy: -0.00166618 J/mol
C    -0.00000    1.39566    0.00000
C     1.20871    0.69783    0.00000
C     1.20871   -0.69783    0.00000
C    -0.00000   -1.39566    0.00000
C    -1.20871   -0.69783    0.00000
C    -1.20871    0.69783    0.00000
H    -0.00000    2.48399    0.00000
H     2.15132    1.24249    0.00000
H     2.15132   -1.24249    0.00000
H    -0.00000   -2.48399    0.00000
H    -2.15132   -1.24249    0.00000
H    -2.15132    1.24249    0.00000
12
Step: 15 --- Kinetic Energy: 0.00004578 J/mol --- Potential Energy: -0.00170042 J/mol --- Total Energy: -0.00165464 J/mol
C    -0.00000    1.39561    0.00000
C     1.20867    0.69781    0.00000
C     1.20867   -0.69781    0.00000
C    -0.00000   -1.39561    0.00000
C    -1.20867   -0.69781    0.00000
C    -1.20867    0.69781    0.00000
H    -0.00000    2.48473    0.00000
H     2.15195    1.24286    0.00000
H     2.15195   -1.24286    0.00000
H    -0.00000   -2.48473    0.00000
H    -2.15195   -1.24286    0.00000
H    -2.15195    1.24286    0.00000
12
Step: 16 --- Kinetic Energy: 0.00005190 J/mol --- Potential Energy: -0.00169430 J/mol --- Total Energy: -0.00164240 J/mol
C    -0.00000    1.39556    0.00000
C     1.20862    0.69778    0.00000
C     1.20862   -0.69778    0.00000
C    -0.00000   -1.39556    0.00000
C    -1.20862   -0.69778    0.00000
C    -1.20862    0.69778    0.00000
H    -0.00000    2.48551    0.00000
H     2.15263    1.24325    0.00000
H     2.15263   -1.24325    0.00000
H    -0.00000   -2.48551    0.00000
H    -2.15263   -1.24325    0.00000
H    -2.15263    1.24325    0.00000
12
Step: 17 --- Kinetic Energy: 0.00005837 J/mol --- Potential Energy: -0.00168783 J/mol --- Total Energy: -0.00162946 J/mol
C    -0.00000    1.39550    0.00000
C     1.20857    0.69775    0.00000
C     1.20857   -0.69775    0.00000
C    -0.00000   -1.39550    0.00000
C    -1.20857   -0.69775    0.00000
C    -1.20857    0.69775    0.00000
H    -0.00000    2.48635    0.00000
H     2.15335    1.24367    0.00000
H     2.15335   -1.24367    0.00000
H    -0.00000   -2.48635    0.00000
H    -2.15335   -1.24367    0.00000
H    -2.15335    1.24367    0.00000
12
Step: 18 --- Kinetic Energy: 0.00006518 J/mol --- Potential Energy: -0.00168102 J/mol --- Total Energy: -0.00161584 J/mol
C    -0.00000    1.39544    0.00000
C     1.20852    0.69772    0.00000
C     1.20852   -0.69772    0.00000
C    -0.00000   -1.39544    0.00000
C    -1.20852   -0.69772    0.00000
C    -1.20852    0.69772    0.00000
H    -0.00000    2.48723    0.00000
H     2.15411    1.24411    0.00000
H     2.15411   -1.24411    0.00000
H    -0.00000   -2.48723    0.00000
H    -2.15411   -1.24411    0.00000
H    -2.15411    1.24411    0.00000
12
Step: 19 --- Kinetic Energy: 0.00007232 J/mol --- Potential Energy: -0.00167388 J/mol --- Total Energy: -0.00160156 J/mol
C    -0.00000    1.39538    0.00000
C     1.20847    0.69769    0.00000
C     1.20847   -0.69769    0.00000
C    -0.00000   -1.39538    0.00000
C    -1.20847   -0.69769    0.00000
C    -1.20847    0.69769    0.00000
H    -0.00000    2.48816    0.00000
H     2.15491    1.24457    0.00000
H     2.15491   -1.24457    0.00000
H     0.00000   -2.48816    0.00000
H    -2.15491   -1.24457    0.00000
H    -2.15491    1.24457    0.00000
12
Step: 20 --- Kinetic Energy: 0.00007978 J/mol --- Potential Energy: -0.00166642 J/mol --- Total Energy: -0.00158665 J/mol
C    -0.00000    1.39532    0.00000
C     1.20841    0.69766    0.00000
C     1.20841   -0.69766    0.00000
C    -0.00000   -1.39532    0.00000
C    -1.20841   -0.69766    0.00000
C    -1.20841    0.69766    0.00000
H    -0.00000    2.48913    0.00000
H     2.15576    1.24506    0.00000
H     2.15576   -1.24506    0.00000
H     0.00000   -2.48913    0.00000
H    -2.15576   -1.24506    0.00000
H    -2.15576    1.24506    0.00000
12
Step: 21 --- Kinetic Energy: 0.00008755 J/mol --- Potential Energy: -0.00165865 J/mol --- Total Energy: -0.00157110 J/mol
C    -0.00000    1.39525    0.00000
C     1.20835    0.69762    0.00000
C     1.20835   -0.69762    0.00000
C    -0.00000   -1.39525    0.00000
C    -1.20835   -0.69762    0.00000
C    -1.20835    0.69762    0.00000
H    -0.00000    2.49016    0.00000
H     2.15664    1.24557    0.00000
H     2.15664   -1.24557    0.00000
H     0.00000   -2.49016    0.00000
H    -2.15664   -1.24557    0.00000
H    -2.15664    1.24557    0.00000
12
Step: 22 --- Kinetic Energy: 0.00009562 J/mol --- Potential Energy: -0.00165058 J/mol --- Total Energy: -0.00155496 J/mol
C    -0.00000    1.39517    0.00000
C     1.20829    0.69759    0.00000
C     1.20829   -0.69759    0.00000
C    -0.00000   -1.39517    0.00000
C    -1.20829   -0.69759    0.00000
C    -1.20829    0.69759    0.00000
H    -0.00000    2.49123    0.00000
H     2.15757    1.24611    0.00000
H     2.15757   -1.24611    0.00000
H     0.00000   -2.49123    0.00000
H    -2.15757   -1.24611    0.00000
H    -2.15757    1.24611    0.00000
12
Step: 23 --- Kinetic Energy: 0.00010398 J/mol --- Potential Energy: -0.00164221 J/mol --- Total Energy: -0.00153823 J/mol
C    -0.00000    1.39510    0.00000
C     1.20822    0.69755    0.00000
C     1.20822   -0.69755    0.00000
C    -0.00000   -1.39510    0.00000
C    -1.20822   -0.69755    0.00000
C    -1.20822    0.69755    0.00000
H    -0.00000    2.49235    0.00000
H     2.15854    1.24667    0.00000
H     2.15854   -1.24667    0.00000
H     0.00000   -2.49235    0.00000
H    -2.15854   -1.24667    0.00000
H    -2.15854    1.24667    0.00000
12
Step: 24 --- Kinetic Energy: 0.00011263 J/mol --- Potential Energy: -0.00163357 J/mol --- Total Energy: -0.00152094 J/mol
C    -0.00000    1.39502    0.00000
C     1.20815    0.69751    0.00000
C     1.20815   -0.69751    0.00000
C    -0.00000   -1.39502    0.00000
C    -1.20815   -0.69751    0.00000
C    -1.20815    0.69751    0.00000
H    -0.00000    2.49352    0.00000
H     2.15955    1.24725    0.00000
H     2.15955   -1.24725    0.00000
H     0.00000   -2.49352    0.00000
H    -2.15955   -1.24725    0.00000
H    -2.15955    1.24725    0.00000
12
Step: 25 --- Kinetic Energy: 0.00012155 J/mol --- Potential Energy: -0.00162465 J/mol --- Total Energy: -0.00150310 J/mol
C    -0.00000    1.39494    0.00000
C     1.20808    0.69747    0.00000
C     1.20808   -0.69747    0.00000
C    -0.00000   -1.39494    0.00000
C    -1.20808   -0.69747    0.00000
C    -1.20808    0.69747    0.00000
H    -0.00000    2.49474    0.00000
H     2.16060    1.24786    0.00000
H     2.16060   -1.24786    0.00000
H     0.00000   -2.49474    0.00000
H    -2.16060   -1.24786    0.00000
H    -2.16060    1.24786    0.00000
12
Step: 26 --- Kinetic Energy: 0.00013072 J/mol --- Potential Energy: -0.00161547 J/mol --- Total Energy: -0.00148475 J/mol
C    -0.00000    1.39485    0.00000
C     1.20801    0.69743    0.00000
C     1.20801   -0.69743    0.00000
C    -0.00000   -1.39485    0.00000
C    -1.20801   -0.69743    0.00000
C    -1.20801    0.69743    0.00000
H    -0.00000    2.49600    0.00000
H     2.16169    1.24849    0.00000
H     2.16169   -1.24849    0.00000
H     0.00000   -2.49600    0.00000
H    -2.16169   -1.24849    0.00000
H    -2.16169    1.24849    0.00000
12
Step: 27 --- Kinetic Energy: 0.00014015 J/mol --- Potential Energy: -0.00160604 J/mol --- Total Energy: -0.00146589 J/mol
C    -0.00000    1.39477    0.00000
C     1.20793    0.69738    0.00000
C     1.20793   -0.69738    0.00000
C    -0.00000   -1.39477    0.00000
C    -1.20793   -0.69738    0.00000
C    -1.20793    0.69738    0.00000
H    -0.00000    2.49730    0.00000
H     2.16281    1.24914    0.00000
H     2.16281   -1.24914    0.00000
H     0.00000   -2.49730    0.00000
H    -2.16281   -1.24914    0.00000
H    -2.16281    1.24914    0.00000
12
Step: 28 --- Kinetic Energy: 0.00014982 J/mol --- Potential Energy: -0.00159637 J/mol --- Total Energy: -0.00144655 J/mol
C    -0.00000    1.39468    0.00000
C     1.20786    0.69734    0.00000
C     1.20786   -0.69734    0.00000
C    -0.00000   -1.39468    0.00000
C    -1.20786   -0.69734    0.00000
C    -1.20786    0.69734    0.00000
H    -0.00000    2.49865    0.00000
H     2.16398    1.24981    0.00000
H     2.16398   -1.24981    0.00000
H     0.00000   -2.49865    0.00000
H    -2.16398   -1.24981    0.00000
H    -2.16398    1.24981    0.00000
12
Step: 29 --- Kinetic Energy: 0.00015972 J/mol --- Potential Energy: -0.00158648 J/mol --- Total Energy: -0.00142676 J/mol
C    -0.00000    1.39458    0.00000
C     1.20778    0.69729    0.00000
C     1.20778   -0.69729    0.00000
C    -0.00000   -1.39458    0.00000
C    -1.20778   -0.69729    0.00000
C    -1.20778    0.69729    0.00000
H    -0.00000    2.50005    0.00000
H     2.16519    1.25051    0.00000
H     2.16519   -1.25051    0.00000
H     0.00000   -2.50005    0.00000
H    -2.16519   -1.25051    0.00000
H    -2.16519    1.25051    0.00000
12
Step: 30 --- Kinetic Energy: 0.00016983 J/mol --- Potential Energy: -0.00157636 J/mol --- Total Energy: -0.00140653 J/mol
C    -0.00000    1.39449    0.00000
C     1.20769    0.69724    0.00000
C     1.20769   -0.69724    0.00000
C    -0.00000   -1.39449    0.00000
C    -1.20769   -0.69724    0.00000
C    -1.20769    0.69724    0.00000
H    -0.00000    2.50149    0.00000
H     2.16643    1.25123    0.00000
H     2.16643   -1.25123    0.00000
H     0.00000   -2.50149    0.00000
H    -2.16643   -1.25123    0.00000
H    -2.16643    1.25123    0.00000
12
Step: 31 --- Kinetic Energy: 0.00018015 J/mol --- Potential Energy: -0.00156604 J/mol --- Total Energy: -0.00138589 J/mol
C    -0.00000    1.39439    0.00000
C     1.20761    0.69719    0.00000
C     1.20761   -0.69719    0.00000
C    -0.00000   -1.39439    0.00000
C    -1.20761   -0.69719    0.00000
C    -1.20761    0.69719    0.00000
H    -0.00000    2.50297    0.00000
H     2.16771    1.25197    0.00000
H     2.16771   -1.25197    0.00000
H     0.00000   -2.50297    0.00000
H    -2.16771   -1.25197    0.00000
H    -2.16771    1.25197    0.00000
12
Step: 32 --- Kinetic Energy: 0.00019067 J/mol --- Potential Energy: -0.00155552 J/mol --- Total Energy: -0.00136486 J/mol
C    -0.00000    1.39428    0.00000
C     1.20752    0.69714    0.00000
C     1.20752   -0.69714    0.00000
C    -0.00000   -1.39428    0.00000
C    -1.20752   -0.69714    0.00000
C    -1.20752    0.69714    0.00000
H    -0.00000    2.50450    0.00000
H     2.16903    1.25273    0.00000
H     2.16903   -1.25273    0.00000
H     0.00000   -2.50450    0.00000
H    -2.16903   -1.25273    0.00000
H    -2.16903    1.25273    0.00000
12
Step: 33 --- Kinetic Energy: 0.00020137 J/mol --- Potential Energy: -0.00154482 J/mol --- Total Energy: -0.00134345 J/mol
C    -0.00000    1.39418    0.00000
C     1.20743    0.69709    0.00000
C     1.20743   -0.69709    0.00000
C    -0.00000   -1.39418    0.00000
C    -1.20743   -0.69709    0.00000
C    -1.20743    0.69709    0.00000
H    -0.00000    2.50607    0.00000
H     2.17039    1.25352    0.00000
H     2.17039   -1.25352    0.00000
H     0.00000   -2.50607    0.00000
H    -2.17039   -1.25352    0.00000
H    -2.17039    1.25352    0.00000
12
Step: 34 --- Kinetic Energy: 0.00021224 J/mol --- Potential Energy: -0.00153395 J/mol --- Total Energy: -0.00132170 J/mol
C    -0.00000    1.39407    0.00000
C     1.20734    0.69704    0.00000
C     1.20734   -0.69704    0.00000
C    -0.00000   -1.39407    0.00000
C    -1.20734   -0.69704    0.00000
C    -1.20734    0.69704    0.00000
H    -0.00000    2.50769    0.00000
H     2.17179    1.25432    0.00000
H     2.17179   -1.25432    0.00000
H     0.00000   -2.50769    0.00000
H    -2.17179   -1.25432    0.00000
H    -2.17179    1.25432    0.00000
12
Step: 35 --- Kinetic Energy: 0.00022328 J/mol --- Potential Energy: -0.00152291 J/mol --- Total Energy: -0.00129963 J/mol
C    -0.00000    1.39396    0.00000
C     1.20724    0.69698    0.00000
C     1.20724   -0.69698    0.00000
C    -0.00000   -1.39396    0.00000
C    -1.20724   -0.69698    0.00000
C    -1.20724    0.69698    0.00000
H    -0.00000    2.50934    0.00000
H     2.17322    1.25515    0.00000
H     2.17322   -1.25515    0.00000
H     0.00000   -2.50934    0.00000
H    -2.17322   -1.25515    0.00000
H    -2.17322    1.25515    0.00000
12
Step: 36 --- Kinetic Energy: 0.00023447 J/mol --- Potential Energy: -0.00151172 J/mol --- Total Energy: -0.00127725 J/mol
C    -0.00000    1.39385    0.00000
C     1.20714    0.69693    0.00000
C     1.20714   -0.69693    0.00000
C    -0.00000   -1.39385    0.00000
C    -1.20714   -0.69693    0.00000
C    -1.20714    0.69693    0.00000
H    -0.00000    2.51104    0.00000
H     2.17469    1.25600    0.00000
H     2.17469   -1.25600    0.00000
H     0.00000   -2.51104    0.00000
H    -2.17469   -1.25600    0.00000
H    -2.17469    1.25600    0.00000
12
Step: 37 --- Kinetic Energy: 0.00024580 J/mol --- Potential Energy: -0.00150039 J/mol --- Total Energy: -0.00125458 J/mol
C    -0.00000    1.39373    0.00000
C     1.20704    0.69687    0.00000
C     1.20704   -0.69687    0.00000
C    -0.00000   -1.39373    0.00000
C    -1.20704   -0.69687    0.00000
C    -1.20704    0.69687    0.00000
H    -0.00000    2.51278    0.00000
H     2.17619    1.25687    0.00000
H     2.17619   -1.25687    0.00000
H     0.00000   -2.51278    0.00000
H    -2.17619   -1.25687    0.00000
H    -2.17619    1.25687    0.00000
12
Step: 38 --- Kinetic Energy: 0.00025726 J/mol --- Potential Energy: -0.00148892 J/mol --- Total Energy: -0.00123166 J/mol
C    -0.00000    1.39361    0.00000
C     1.20694    0.69681    0.00000
C     1.20694   -0.69681    0.00000
C    -0.00000   -1.39361    0.00000
C    -1.20694   -0.69681    0.00000
C    -1.20694    0.69681    0.00000
H    -0.00000    2.51456    0.00000
H     2.17773    1.25775    0.00000
H     2.17773   -1.25775    0.00000
H     0.00000   -2.51456    0.00000
H    -2.17773   -1.25775    0.00000
H    -2.17773    1.25775    0.00000
12
Step: 39 --- Kinetic Energy: 0.00026884 J/mol --- Potential Energy: -0.00147734 J/mol --- Total Energy: -0.00120850 J/mol
C    -0.00000    1.39349    0.00000
C     1.20684    0.69675    0.00000
C     1.20684   -0.69675    0.00000
C    -0.00000   -1.39349    0.00000
C    -1.20684   -0.69675    0.00000
C    -1.20684    0.69675    0.00000
H    -0.00000    2.51638    0.00000
H     2.17930    1.25866    0.00000
H     2.17930   -1.25866    0.00000
H     0.00000   -2.51638    0.00000
H    -2.17930   -1.25866    0.00000
H    -2.17930    1.25866    0.00000
12
Step: 40 --- Kinetic Energy: 0.00028054 J/mol --- Potential Energy: -0.00146565 J/mol --- Total Energy: -0.00118512 J/mol
C    -0.00000    1.39337    0.00000
C     1.20673    0.69669    0.00000
C     1.20673   -0.69669    0.00000
C    -0.00000   -1.39337    0.00000
C    -1.20673   -0.69669    0.00000
C    -1.20673    0.69669    0.00000
H    -0.00000    2.51824    0.00000
H     2.18091    1.25959    0.00000
H     2.18091   -1.25959    0.00000
H     0.00000   -2.51824    0.00000
H    -2.18091   -1.25959    0.00000
H    -2.18091    1.25959    0.00000
12
Step: 41 --- Kinetic Energy: 0.00029233 J/mol --- Potential Energy: -0.00145386 J/mol --- Total Energy: -0.00116154 J/mol
C    -0.00000    1.39324    0.00000
C     1.20662    0.69662    0.00000
C     1.20662   -0.69662    0.00000
C    -0.00000   -1.39324    0.00000
C    -1.20662   -0.69662    0.00000
C    -1.20662    0.69662    0.00000
H    -0.00000    2.52014    0.00000
H     2.18255    1.26054    0.00000
H     2.18255   -1.26054    0.00000
H     0.00000   -2.52014    0.00000
H    -2.18255   -1.26054    0.00000
H    -2.18255    1.26054    0.00000
12
Step: 42 --- Kinetic Energy: 0.00030420 J/mol --- Potential Energy: -0.00144198 J/mol --- Total Energy: -0.00113778 J/mol
C    -0.00000    1.39312    0.00000
C     1.20651    0.69656    0.00000
C     1.20651   -0.69656    0.00000
C    -0.00000   -1.39312    0.00000
C    -1.20651   -0.69656    0.00000
C    -1.20651    0.69656    0.00000
H    -0.00000    2.52208    0.00000
H     2.18423    1.26151    0.00000
H     2.18423   -1.26151    0.00000
H     0.00000   -2.52208    0.00000
H    -2.18423   -1.26151    0.00000
H    -2.18423    1.26151    0.00000
12
Step: 43 --- Kinetic Energy: 0.00031616 J/mol --- Potential Energy: -0.00143002 J/mol --- Total Energy: -0.00111386 J/mol
C    -0.00000    1.39299    0.00000
C     1.20640    0.69650    0.00000
C     1.20640   -0.69650    0.00000
C    -0.00000   -1.39299    0.00000
C    -1.20640   -0.69650    0.00000
C    -1.20640    0.69650    0.00000
H    -0.00000    2.52406    0.00000
H     2.18594    1.26250    0.00000
H     2.18594   -1.26250    0.00000
H     0.00000   -2.52406    0.00000
H    -2.18594   -1.26250    0.00000
H    -2.18594    1.26250    0.00000
12
Step: 44 --- Kinetic Energy: 0.00032819 J/mol --- Potential Energy: -0.00141800 J/mol --- Total Energy: -0.00108981 J/mol
C    -0.00000    1.39285    0.00000
C     1.20628    0.69643    0.00000
C     1.20628   -0.69643    0.00000
C    -0.00000   -1.39285    0.00000
C    -1.20628   -0.69643    0.00000
C    -1.20628    0.69643    0.00000
H    -0.00000    2.52607    0.00000
H     2.18768    1.26350    0.00000
H     2.18768   -1.26350    0.00000
H     0.00000   -2.52607    0.00000
H    -2.18768   -1.26350    0.00000
H    -2.18768    1.26350    0.00000
12
Step: 45 --- Kinetic Energy: 0.00034028 J/mol --- Potential Energy: -0.00140591 J/mol --- Total Energy: -0.00106563 J/mol
C    -0.00000    1.39272    0.00000
C     1.20617    0.69636    0.00000
C     1.20617   -0.69636    0.00000
C    -0.00000   -1.39272    0.00000
C    -1.20617   -0.69636    0.00000
C    -1.20617    0.69636    0.00000
H    -0.00000    2.52813    0.00000
H     2.18945    1.26453    0.00000
H     2.18945   -1.26453    0.00000
H     0.00000   -2.52813    0.00000
H    -2.18945   -1.26453    0.00000
H    -2.18945    1.26453    0.00000
12
Step: 46 --- Kinetic Energy: 0.00035242 J/mol --- Potential Energy: -0.00139377 J/mol --- Total Energy: -0.00104135 J/mol
C    -0.00000    1.39258    0.00000
C     1.20605    0.69629    0.00000
C     1.20605   -0.69629    0.00000
C    -0.00000   -1.39258    0.00000
C    -1.20605   -0.69629    0.00000
C    -1.20605    0.69629    0.00000
H    -0.00000    2.53022    0.00000
H     2.19126    1.26557    0.00000
H     2.19126   -1.26557    0.00000
H     0.00000   -2.53022    0.00000
H    -2.19126   -1.26557    0.00000
H    -2.19126    1.26557    0.00000
12
Step: 47 --- Kinetic Energy: 0.00036459 J/mol --- Potential Energy: -0.00138159 J/mol --- Total Energy: -0.00101699 J/mol
C    -0.00000    1.39244    0.00000
C     1.20593    0.69622    0.00000
C     1.20593   -0.69622    0.00000
C    -0.00000   -1.39244    0.00000
C    -1.20593   -0.69622    0.00000
C    -1.20593    0.69622    0.00000
H    -0.00000    2.53234    0.00000
H     2.19309    1.26663    0.00000
H     2.19309   -1.26663    0.00000
H     0.00000   -2.53234    0.00000
H    -2.19309   -1.26663    0.00000
H    -2.19309    1.26663    0.00000
12
Step: 48 --- Kinetic Energy: 0.00037681 J/mol --- Potential Energy: -0.00136938 J/mol --- Total Energy: -0.00099257 J/mol
C    -0.00000    1.39230    0.00000
C     1.20580    0.69615    0.00000
C     1.20580   -0.69615    0.00000
C    -0.00000   -1.39230    0.00000
C    -1.20580   -0.69615    0.00000
C    -1.20580    0.69615    0.00000
H    -0.00000    2.53450    0.00000
H     2.19496    1.26771    0.00000
H     2.19496   -1.26771    0.00000
H     0.00000   -2.53450    0.00000
H    -2.19496   -1.26771    0.00000
H    -2.19496    1.26771    0.00000
12
Step: 49 --- Kinetic Energy: 0.00038904 J/mol --- Potential Energy: -0.00135714 J/mol --- Total Energy: -0.00096810 J/mol
C    -0.00000    1.39215    0.00000
C     1.20568    0.69608    0.00000
C     1.20568   -0.69608    0.00000
C    -0.00000   -1.39215    0.00000
C    -1.20568   -0.69608    0.00000
C    -1.20568    0.69608    0.00000
H    -0.00000    2.53670    0.00000
H     2.19686    1.26881    0.00000
H     2.19686   -1.26881    0.00000
H     0.00000   -2.53670    0.00000
H    -2.19686   -1.26881    0.00000
H    -2.19686    1.26881    0.00000
12
Step: 50 --- Kinetic Energy: 0.00040130 J/mol --- Potential Energy: -0.00134489 J/mol --- Total Energy: -0.00094359 J/mol
C    -0.00000    1.39201    0.00000
C     1.20555    0.69601    0.00000
C     1.20555   -0.69601    0.00000
C    -0.00000   -1.39201    0.00000
C    -1.20555   -0.69601    0.00000
C    -1.20555    0.69601    0.00000
H    -0.00000    2.53893    0.00000
H     2.19879    1.26993    0.00000
H     2.19879   -1.26993    0.00000
H     0.00000   -2.53893    0.00000
H    -2.19879   -1.26993    0.00000
H    -2.19879    1.26993    0.00000
12
Step: 51 --- Kinetic Energy: 0.00041356 J/mol --- Potential Energy: -0.00133263 J/mol --- Total Energy: -0.00091907 J/mol
C    -0.00000    1.39186    0.00000
C     1.20542    0.69593    0.00000
C     1.20542   -0.69593    0.00000
C    -0.00000   -1.39186    0.00000
C    -1.20542   -0.69593    0.00000
C    -1.20542    0.69593    0.00000
H    -0.00000    2.54120    0.00000
H     2.20075    1.27106    0.00000
H     2.20075   -1.27106    0.00000
H     0.00000   -2.54120    0.00000
H    -2.20075   -1.27106    0.00000
H    -2.20075    1.27106    0.00000
12
Step: 52 --- Kinetic Energy: 0.00042581 J/mol --- Potential Energy: -0.00132037 J/mol --- Total Energy: -0.00089455 J/mol
C    -0.00000    1.39171    0.00000
C     1.20529    0.69586    0.00000
C     1.20529   -0.69586    0.00000
C    -0.00000   -1.39171    0.00000
C    -1.20529   -0.69586    0.00000
C    -1.20529    0.69586    0.00000
H    -0.00000    2.54350    0.00000
H     2.20274    1.27221    0.00000
H     2.20274   -1.27221    0.00000
H     0.00000   -2.54350    0.00000
H    -2.20274   -1.27221    0.00000
H    -2.20274    1.27221    0.00000
12
Step: 53 --- Kinetic Energy: 0.00043807 J/mol --- Potential Energy: -0.00130811 J/mol --- Total Energy: -0.00087005 J/mol
C    -0.00000    1.39156    0.00000
C     1.20516    0.69578    0.00000
C     1.20516   -0.69578    0.00000
C    -0.00000   -1.39156    0.00000
C    -1.20516   -0.69578    0.00000
C    -1.20516    0.69578    0.00000
H    -0.00000    2.54584    0.00000
H     2.20476    1.27337    0.00000
H     2.20476   -1.27337    0.00000
H     0.00000   -2.54584    0.00000