3
Step: 0 --- Kinetic Energy: 0.00000000 J/mol --- Potential Energy: -0.00098640 J/mol --- Total Energy: -0.00098640 J/mol
O     0.00000    0.00000    0.00000
H     0.75800    0.58600    0.00000
H    -0.75800    0.58600    0.00000
3
Step: 1 --- Kinetic Energy: 0.00000000 J/mol --- Potential Energy: -0.00098640 J/mol --- Total Energy: -0.00098639 J/mol
O     0.00000   -0.00000    0.00000
H     0.75800    0.58600    0.00000
H    -0.75800    0.58600    0.00000
3
Step: 2 --- Kinetic Energy: 0.00000002 J/mol --- Potential Energy: -0.00098638 J/mol --- Total Energy: -0.00098637 J/mol
O     0.00000   -0.00000    0.00000
H     0.75800    0.58600    0.00000
H    -0.75800    0.58600    0.00000
3
Step: 3 --- Kinetic Energy: 0.00000004 J/mol --- Potential Energy: -0.00098637 J/mol --- Total Energy: -0.00098633 J/mol
O     0.00000   -0.00000    0.00000
H     0.75800    0.58600    0.00000
H    -0.75800    0.58600    0.00000
3
Step: 4 --- Kinetic Energy: 0.00000006 J/mol --- Potential Energy: -0.00098634 J/mol --- Total Energy: -0.00098627 J/mol
O     0.00000   -0.00000    0.00000
H     0.75801    0.58601    0.00000
H    -0.75801    0.58601    0.00000
3
Step: 5 --- Kinetic Energy: 0.00000010 J/mol --- Potential Energy: -0.00098630 J/mol --- Total Energy: -0.00098620 J/mol
O     0.00000   -0.00000    0.00000
H     0.75801    0.58601    0.00000
H    -0.75801    0.58601    0.00000
3
Step: 6 --- Kinetic Energy: 0.00000014 J/mol --- Potential Energy: -0.00098626 J/mol --- Total Energy: -0.00098612 J/mol
O     0.00000   -0.00000    0.00000
H     0.75802    0.58601    0.00000
H    -0.75802    0.58601    0.00000
3
Step: 7 --- Kinetic Energy: 0.00000019 J/mol --- Potential Energy: -0.00098621 J/mol --- Total Energy: -0.00098601 J/mol
O     0.00000   -0.00000    0.00000
H     0.75802    0.58602    0.00000
H    -0.75802    0.58602    0.00000
3
Step: 8 --- Kinetic Energy: 0.00000025 J/mol --- Potential Energy: -0.00098615 J/mol --- Total Energy: -0.00098590 J/mol
O     0.00000   -0.00000    0.00000
H     0.75803    0.58602    0.00000
H    -0.75803    0.58602    0.00000
3
Step: 9 --- Kinetic Energy: 0.00000032 J/mol --- Potential Energy: -0.00098608 J/mol --- Total Energy: -0.00098576 J/mol
O     0.00000   -0.00000    0.00000
H     0.75804    0.58603    0.00000
H    -0.75804    0.58603    0.00000
3
Step: 10 --- Kinetic Energy: 0.00000039 J/mol --- Potential Energy: -0.00098601 J/mol --- Total Energy: -0.00098561 J/mol
O     0.00000   -0.00000    0.00000
H     0.75805    0.58604    0.00000
H    -0.75805    0.58604    0.00000
3
Step: 11 --- Kinetic Energy: 0.00000048 J/mol --- Potential Energy: -0.00098592 J/mol --- Total Energy: -0.00098545 J/mol
O     0.00000   -0.00001    0.00000
H     0.75806    0.58604    0.00000
H    -0.75806    0.58604    0.00000
3
Step: 12 --- Kinetic Energy: 0.00000057 J/mol --- Potential Energy: -0.00098583 J/mol --- Total Energy: -0.00098527 J/mol
O     0.00000   -0.00001    0.00000
H     0.75807    0.58605    0.00000
H    -0.75807    0.58605    0.00000
3
Step: 13 --- Kinetic Energy: 0.00000067 J/mol --- Potential Energy: -0.00098573 J/mol --- Total Energy: -0.00098507 J/mol
O     0.00000   -0.00001    0.00000
H     0.75808    0.58606    0.00000
H    -0.75808    0.58606    0.00000
3
Step: 14 --- Kinetic Energy: 0.00000077 J/mol --- Potential Energy: -0.00098563 J/mol --- Total Energy: -0.00098486 J/mol
O     0.00000   -0.00001    0.00000
H     0.75810    0.58607    0.00000
H    -0.75810    0.58607    0.00000
3
Step: 15 --- Kinetic Energy: 0.00000089 J/mol --- Potential Energy: -0.00098551 J/mol --- Total Energy: -0.00098463 J/mol
O     0.00000   -0.00001    0.00000
H     0.75811    0.58608    0.00000
H    -0.75811    0.58608    0.00000
3
Step: 16 --- Kinetic Energy: 0.00000101 J/mol --- Potential Energy: -0.00098539 J/mol --- Total Energy: -0.00098438 J/mol
O     0.00000   -0.00001    0.00000
H     0.75813    0.58609    0.00000
H    -0.75813    0.58609    0.00000
3
Step: 17 --- Kinetic Energy: 0.00000114 J/mol --- Potential Energy: -0.00098526 J/mol --- Total Energy: -0.00098412 J/mol
O     0.00000   -0.00001    0.00000
H     0.75814    0.58610    0.00000
H    -0.75814    0.58610    0.00000
3
Step: 18 --- Kinetic Energy: 0.00000128 J/mol --- Potential Energy: -0.00098512 J/mol --- Total Energy: -0.00098385 J/mol
O     0.00000   -0.00001    0.00000
H     0.75816    0.58612    0.00000
H    -0.75816    0.58612    0.00000
3
Step: 19 --- Kinetic Energy: 0.00000142 J/mol --- Potential Energy: -0.00098498 J/mol --- Total Energy: -0.00098356 J/mol
O     0.00000   -0.00002    0.00000
H     0.75818    0.58613    0.00000
H    -0.75818    0.58613    0.00000
3
Step: 20 --- Kinetic Energy: 0.00000157 J/mol --- Potential Energy: -0.00098483 J/mol --- Total Energy: -0.00098325 J/mol
O     0.00000   -0.00002    0.00000
H     0.75820    0.58614    0.00000
H    -0.75820    0.58614    0.00000
3
Step: 21 --- Kinetic Energy: 0.00000174 J/mol --- Potential Energy: -0.00098466 J/mol --- Total Energy: -0.00098293 J/mol
O     0.00000   -0.00002    0.00000
H     0.75822    0.58616    0.00000
H    -0.75822    0.58616    0.00000
3
Step: 22 --- Kinetic Energy: 0.00000190 J/mol --- Potential Energy: -0.00098450 J/mol --- Total Energy: -0.00098259 J/mol
O     0.00000   -0.00002    0.00000
H     0.75824    0.58618    0.00000
H    -0.75824    0.58618    0.00000
3
Step: 23 --- Kinetic Energy: 0.00000208 J/mol --- Potential Energy: -0.00098432 J/mol --- Total Energy: -0.00098224 J/mol
O     0.00000   -0.00002    0.00000
H     0.75826    0.58619    0.00000
H    -0.75826    0.58619    0.00000
3
Step: 24 --- Kinetic Energy: 0.00000227 J/mol --- Potential Energy: -0.00098413 J/mol --- Total Energy: -0.00098187 J/mol
O     0.00000   -0.00003    0.00000
H     0.75828    0.58621    0.00000
H    -0.75828    0.58621    0.00000
3
Step: 25 --- Kinetic Energy: 0.00000246 J/mol --- Potential Energy: -0.00098394 J/mol --- Total Energy: -0.00098148 J/mol
O     0.00000   -0.00003    0.00000
H     0.75831    0.58623    0.00000
H    -0.75831    0.58623    0.00000
3
Step: 26 --- Kinetic Energy: 0.00000266 J/mol --- Potential Energy: -0.00098374 J/mol --- Total Energy: -0.00098108 J/mol
O     0.00000   -0.00003    0.00000
H     0.75833    0.58624    0.00000
H    -0.75833    0.58624    0.00000
3
Step: 27 --- Kinetic Energy: 0.00000287 J/mol --- Potential Energy: -0.00098353 J/mol --- Total Energy: -0.00098067 J/mol
O     0.00000   -0.00003    0.00000
H     0.75836    0.58626    0.00000
H    -0.75836    0.58626    0.00000
3
Step: 28 --- Kinetic Energy: 0.00000308 J/mol --- Potential Energy: -0.00098332 J/mol --- Total Energy: -0.00098024 J/mol
O     0.00000   -0.00004    0.00000
H     0.75839    0.58628    0.00000
H    -0.75839    0.58628    0.00000
3
Step: 29 --- Kinetic Energy: 0.00000331 J/mol --- Potential Energy: -0.00098309 J/mol --- Total Energy: -0.00097979 J/mol
O     0.00000   -0.00004    0.00000
H     0.75841    0.58630    0.00000
H    -0.75841    0.58630    0.00000
3
Step: 30 --- Kinetic Energy: 0.00000354 J/mol --- Potential Energy: -0.00098286 J/mol --- Total Energy: -0.00097933 J/mol
O     0.00000   -0.00004    0.00000
H     0.75844    0.58633    0.00000
H    -0.75844    0.58633    0.00000
3
Step: 31 --- Kinetic Energy: 0.00000378 J/mol --- Potential Energy: -0.00098262 J/mol --- Total Energy: -0.00097885 J/mol
O     0.00000   -0.00004    0.00000
H     0.75847    0.58635    0.00000
H    -0.75847    0.58635    0.00000
3
Step: 32 --- Kinetic Energy: 0.00000402 J/mol --- Potential Energy: -0.00098238 J/mol --- Total Energy: -0.00097835 J/mol
O     0.00000   -0.00005    0.00000
H     0.75850    0.58637    0.00000
H    -0.75850    0.58637    0.00000
3
Step: 33 --- Kinetic Energy: 0.00000428 J/mol --- Potential Energy: -0.00098212 J/mol --- Total Energy: -0.00097785 J/mol
O     0.00000   -0.00005    0.00000
H     0.75854    0.58639    0.00000
H    -0.75854    0.58639    0.00000
3
Step: 34 --- Kinetic Energy: 0.00000454 J/mol --- Potential Energy: -0.00098186 J/mol --- Total Energy: -0.00097732 J/mol
O     0.00000   -0.00005    0.00000
H     0.75857    0.58642    0.00000
H    -0.75857    0.58642    0.00000
3
Step: 35 --- Kinetic Energy: 0.00000481 J/mol --- Potential Energy: -0.00098159 J/mol --- Total Energy: -0.00097678 J/mol
O     0.00000   -0.00006    0.00000
H     0.75860    0.58644    0.00000
H    -0.75860    0.58644    0.00000
3
Step: 36 --- Kinetic Energy: 0.00000509 J/mol --- Potential Energy: -0.00098131 J/mol --- Total Energy: -0.00097623 J/mol
O     0.00000   -0.00006    0.00000
H     0.75864    0.58647    0.00000
H    -0.75864    0.58647    0.00000
3
Step: 37 --- Kinetic Energy: 0.00000537 J/mol --- Potential Energy: -0.00098103 J/mol --- Total Energy: -0.00097565 J/mol
O     0.00000   -0.00006    0.00000
H     0.75867    0.58650    0.00000
H    -0.75867    0.58650    0.00000
3
Step: 38 --- Kinetic Energy: 0.00000567 J/mol --- Potential Energy: -0.00098073 J/mol --- Total Energy: -0.00097507 J/mol
O     0.00000   -0.00007    0.00000
H     0.75871    0.58652    0.00000
H    -0.75871    0.58652    0.00000
3
Step: 39 --- Kinetic Energy: 0.00000597 J/mol --- Potential Energy: -0.00098043 J/mol --- Total Energy: -0.00097447 J/mol
O     0.00000   -0.00007    0.00000
H     0.75875    0.58655    0.00000
H    -0.75875    0.58655    0.00000
3
Step: 40 --- Kinetic Energy: 0.00000627 J/mol --- Potential Energy: -0.00098013 J/mol --- Total Energy: -0.00097385 J/mol
O     0.00000   -0.00007    0.00000
H     0.75879    0.58658    0.00000
H    -0.75879    0.58658    0.00000
3
Step: 41 --- Kinetic Energy: 0.00000659 J/mol --- Potential Energy: -0.00097981 J/mol --- Total Energy: -0.00097322 J/mol
O     0.00000   -0.00008    0.00000
H     0.75883    0.58661    0.00000
H    -0.75883    0.58661    0.00000
3
Step: 42 --- Kinetic Energy: 0.00000691 J/mol --- Potential Energy: -0.00097949 J/mol --- Total Energy: -0.00097257 J/mol
O     0.00000   -0.00008    0.00000
H     0.75887    0.58664    0.00000
H    -0.75887    0.58664    0.00000
3
Step: 43 --- Kinetic Energy: 0.00000725 J/mol --- Potential Energy: -0.00097915 J/mol --- Total Energy: -0.00097191 J/mol
O     0.00000   -0.00008    0.00000
H     0.75891    0.58667    0.00000
H    -0.75891    0.58667    0.00000
3
Step: 44 --- Kinetic Energy: 0.00000758 J/mol --- Potential Energy: -0.00097882 J/mol --- Total Energy: -0.00097123 J/mol
O     0.00000   -0.00009    0.00000
H     0.75895    0.58670    0.00000
H    -0.75895    0.58670    0.00000
3
Step: 45 --- Kinetic Energy: 0.00000793 J/mol --- Potential Energy: -0.00097847 J/mol --- Total Energy: -0.00097054 J/mol
O     0.00000   -0.00009    0.00000
H     0.75900    0.58673    0.00000
H    -0.75900    0.58673    0.00000
3
Step: 46 --- Kinetic Energy: 0.00000829 J/mol --- Potential Energy: -0.00097812 J/mol --- Total Energy: -0.00096983 J/mol
O     0.00000   -0.00010    0.00000
H     0.75904    0.58677    0.00000
H    -0.75904    0.58677    0.00000
3
Step: 47 --- Kinetic Energy: 0.00000865 J/mol --- Potential Energy: -0.00097775 J/mol --- Total Energy: -0.00096911 J/mol
O     0.00000   -0.00010    0.00000
H     0.75909    0.58680    0.00000
H    -0.75909    0.58680    0.00000
3
Step: 48 --- Kinetic Energy: 0.00000902 J/mol --- Potential Energy: -0.00097738 J/mol --- Total Energy: -0.00096837 J/mol
O     0.00000   -0.00011    0.00000
H     0.75913    0.58683    0.00000
H    -0.75913    0.58683    0.00000
3
Step: 49 --- Kinetic Energy: 0.00000939 J/mol --- Potential Energy: -0.00097701 J/mol --- Total Energy: -0.00096761 J/mol
O     0.00000   -0.00011    0.00000
H     0.75918    0.58687    0.00000
H    -0.75918    0.58687    0.00000
3
Step: 50 --- Kinetic Energy: 0.00000978 J/mol --- Potential Energy: -0.00097662 J/mol --- Total Energy: -0.00096685 J/mol
O     0.00000   -0.00011    0.00000
H     0.75923    0.58690    0.00000
H    -0.75923    0.58690    0.00000
3
Step: 51 --- Kinetic Energy: 0.00001017 J/mol --- Potential Energy: -0.00097623 J/mol --- Total Energy: -0.00096606 J/mol
O     0.00000   -0.00012    0.00000
H     0.75928    0.58694    0.00000
H    -0.75928    0.58694    0.00000
3
Step: 52 --- Kinetic Energy: 0.00001057 J/mol --- Potential Energy: -0.00097583 J/mol --- Total Energy: -0.00096526 J/mol
O     0.00000   -0.00012    0.00000
H     0.75933    0.58698    0.00000
H    -0.75933    0.58698    0.00000
3
Step: 53 --- Kinetic Energy: 0.00001098 J/mol --- Potential Energy: -0.00097543 J/mol --- Total Energy: -0.00096445 J/mol
O     0.00000   -0.00013    0.00000
H     0.75938    0.58702    0.00000
H    -0.75938    0.58702    0.00000
3
Step: 54 --- Kinetic Energy: 0.00001139 J/mol --- Potential Energy: -0.00097501 J/mol --- Total Energy: -0.00096362 J/mol
O     0.00000   -0.00013    0.00000
H     0.75943    0.58705    0.00000
H    -0.75943    0.58705    0.00000
3
Step: 55 --- Kinetic Energy: 0.00001181 J/mol --- Potential Energy: -0.00097459 J/mol --- Total Energy: -0.00096278 J/mol
O     0.00000   -0.00014    0.00000
H     0.75949    0.58709    0.00000
H    -0.75949    0.58709    0.00000
3
Step: 56 --- Kinetic Energy: 0.00001224 J/mol --- Potential Energy: -0.00097416 J/mol --- Total Energy: -0.00096192 J/mol
O     0.00000   -0.00014    0.00000
H     0.75954    0.58713    0.00000
H    -0.75954    0.58713    0.00000
3
Step: 57 --- Kinetic Energy: 0.00001268 J/mol --- Potential Energy: -0.00097372 J/mol --- Total Energy: -0.00096105 J/mol
O     0.00000   -0.00015    0.00000
H     0.75960    0.58718    0.00000
H    -0.75960    0.58718    0.00000
3
Step: 58 --- Kinetic Energy: 0.00001312 J/mol --- Potential Energy: -0.00097328 J/mol --- Total Energy: -0.00096016 J/mol
O     0.00000   -0.00015    0.00000
H     0.75965    0.58722    0.00000
H    -0.75965    0.58722    0.00000
3
Step: 59 --- Kinetic Energy: 0.00001357 J/mol --- Potential Energy: -0.00097283 J/mol --- Total Energy: -0.00095925 J/mol
O     0.00000   -0.00016    0.00000
H     0.75971    0.58726    0.00000
H    -0.75971    0.58726    0.00000
3
Step: 60 --- Kinetic Energy: 0.00001403 J/mol --- Potential Energy: -0.00097237 J/mol --- Total Energy: -0.00095834 J/mol
O     0.00000   -0.00016    0.00000
H     0.75977    0.58730    0.00000
H    -0.75977    0.58730    0.00000
3
Step: 61 --- Kinetic Energy: 0.00001450 J/mol --- Potential Energy: -0.00097190 J/mol --- Total Energy: -0.00095740 J/mol
O     0.00000   -0.00017    0.00000
H     0.75983    0.58735    0.00000
H    -0.75983    0.58735    0.00000
3
Step: 62 --- Kinetic Energy: 0.00001497 J/mol --- Potential Energy: -0.00097143 J/mol --- Total Energy: -0.00095646 J/mol
O     0.00000   -0.00018    0.00000
H     0.75989    0.58739    0.00000
H    -0.75989    0.58739    0.00000
3
Step: 63 --- Kinetic Energy: 0.00001545 J/mol --- Potential Energy: -0.00097095 J/mol --- Total Energy: -0.00095550 J/mol
O     0.00000   -0.00018    0.00000
H     0.75995    0.58743    0.00000
H    -0.75995    0.58743    0.00000
3
Step: 64 --- Kinetic Energy: 0.00001594 J/mol --- Potential Energy: -0.00097046 J/mol --- Total Energy: -0.00095452 J/mol
O     0.00000   -0.00019    0.00000
H     0.76001    0.58748    0.00000
H    -0.76001    0.58748    0.00000
3
Step: 65 --- Kinetic Energy: 0.00001644 J/mol --- Potential Energy: -0.00096996 J/mol --- Total Energy: -0.00095353 J/mol
O     0.00000   -0.00019    0.00000
H     0.76008    0.58753    0.00000
H    -0.76008    0.58753    0.00000
3
Step: 66 --- Kinetic Energy: 0.00001694 J/mol --- Potential Energy: -0.00096946 J/mol --- Total Energy: -0.00095252 J/mol
O     0.00000   -0.00020    0.00000
H     0.76014    0.58757    0.00000
H    -0.76014    0.58757    0.00000
3
Step: 67 --- Kinetic Energy: 0.00001745 J/mol --- Potential Energy: -0.00096895 J/mol --- Total Energy: -0.00095150 J/mol
O     0.00000   -0.00020    0.00000
H     0.76021    0.58762    0.00000
H    -0.76021    0.58762    0.00000
3
Step: 68 --- Kinetic Energy: 0.00001797 J/mol --- Potential Energy: -0.00096843 J/mol --- Total Energy: -0.00095047 J/mol
O     0.00000   -0.00021    0.00000
H     0.76027    0.58767    0.00000
H    -0.76027    0.58767    0.00000
3
Step: 69 --- Kinetic Energy: 0.00001849 J/mol --- Potential Energy: -0.00096791 J/mol --- Total Energy: -0.00094942 J/mol
O     0.00000   -0.00022    0.00000
H     0.76034    0.58772    0.00000
H    -0.76034    0.58772    0.00000
3
Step: 70 --- Kinetic Energy: 0.00001902 J/mol --- Potential Energy: -0.00096738 J/mol --- Total Energy: -0.00094835 J/mol
O     0.00000   -0.00022    0.00000
H     0.76041    0.58777    0.00000
H    -0.76041    0.58777    0.00000
3
Step: 71 --- Kinetic Energy: 0.00001956 J/mol --- Potential Energy: -0.00096684 J/mol --- Total Energy: -0.00094728 J/mol
O     0.00000   -0.00023    0.00000
H     0.76048    0.58782    0.00000
H    -0.76048    0.58782    0.00000
3
Step: 72 --- Kinetic Energy: 0.00002011 J/mol --- Potential Energy: -0.00096629 J/mol --- Total Energy: -0.00094618 J/mol
O     0.00000   -0.00024    0.00000
H     0.76055    0.58787    0.00000
H    -0.76055    0.58787    0.00000
3
Step: 73 --- Kinetic Energy: 0.00002066 J/mol --- Potential Energy: -0.00096574 J/mol --- Total Energy: -0.00094508 J/mol
O     0.00000   -0.00024    0.00000
H     0.76062    0.58792    0.00000
H    -0.76062    0.58792    0.00000
3
Step: 74 --- Kinetic Energy: 0.00002122 J/mol --- Potential Energy: -0.00096518 J/mol --- Total Energy: -0.00094396 J/mol
O     0.00000   -0.00025    0.00000
H     0.76069    0.58798    0.00000
H    -0.76069    0.58798    0.00000
3
Step: 75 --- Kinetic Energy: 0.00002179 J/mol --- Potential Energy: -0.00096461 J/mol --- Total Energy: -0.00094282 J/mol
O     0.00000   -0.00026    0.00000
H     0.76076    0.58803    0.00000
H    -0.76076    0.58803    0.00000
3
Step: 76 --- Kinetic Energy: 0.00002236 J/mol --- Potential Energy: -0.00096404 J/mol --- Total Energy: -0.00094167 J/mol
O     0.00000   -0.00026    0.00000
H     0.76083    0.58808    0.00000
H    -0.76083    0.58808    0.00000
3
Step: 77 --- Kinetic Energy: 0.00002295 J/mol --- Potential Energy: -0.00096346 J/mol --- Total Energy: -0.00094051 J/mol
O     0.00000   -0.00027    0.00000
H     0.76091    0.58814    0.00000
H    -0.76091    0.58814    0.00000
3
Step: 78 --- Kinetic Energy: 0.00002353 J/mol --- Potential Energy: -0.00096287 J/mol --- Total Energy: -0.00093933 J/mol
O     0.00000   -0.00028    0.00000
H     0.76098    0.58820    0.00000
H    -0.76098    0.58820    0.00000
3
Step: 79 --- Kinetic Energy: 0.00002413 J/mol --- Potential Energy: -0.00096227 J/mol --- Total Energy: -0.00093814 J/mol
O     0.00000   -0.00028    0.00000
H     0.76106    0.58825    0.00000
H    -0.76106    0.58825    0.00000
3
Step: 80 --- Kinetic Energy: 0.00002473 J/mol --- Potential Energy: -0.00096167 J/mol --- Total Energy: -0.00093694 J/mol
O     0.00000   -0.00029    0.00000
H     0.76114    0.58831    0.00000
H    -0.76114    0.58831    0.00000
3
Step: 81 --- Kinetic Energy: 0.00002534 J/mol --- Potential Energy: -0.00096106 J/mol --- Total Energy: -0.00093572 J/mol
O     0.00000   -0.00030    0.00000
H     0.76122    0.58837    0.00000
H    -0.76122    0.58837    0.00000
3
Step: 82 --- Kinetic Energy: 0.00002596 J/mol --- Potential Energy: -0.00096044 J/mol --- Total Energy: -0.00093448 J/mol
O     0.00000   -0.00031    0.00000
H     0.76130    0.58843    0.00000
H    -0.76130    0.58843    0.00000
3
Step: 83 --- Kinetic Energy: 0.00002658 J/mol --- Potential Energy: -0.00095982 J/mol --- Total Energy: -0.00093324 J/mol
O     0.00000   -0.00031    0.00000
H     0.76138    0.58848    0.00000
H    -0.76138    0.58848    0.00000
3
Step: 84 --- Kinetic Energy: 0.00002721 J/mol --- Potential Energy: -0.00095919 J/mol --- Total Energy: -0.00093197 J/mol
O     0.00000   -0.00032    0.00000
H     0.76146    0.58854    0.00000
H    -0.76146    0.58854    0.00000
3
Step: 85 --- Kinetic Energy: 0.00002785 J/mol --- Potential Energy: -0.00095855 J/mol --- Total Energy: -0.00093070 J/mol
O     0.00000   -0.00033    0.00000
H     0.76154    0.58861    0.00000
H    -0.76154    0.58861    0.00000
3
Step: 86 --- Kinetic Energy: 0.00002849 J/mol --- Potential Energy: -0.00095791 J/mol --- Total Energy: -0.00092941 J/mol
O     0.00000   -0.00034    0.00000
H     0.76162    0.58867    0.00000
H    -0.76162    0.58867    0.00000
3
Step: 87 --- Kinetic Energy: 0.00002915 J/mol --- Potential Energy: -0.00095725 J/mol --- Total Energy: -0.00092811 J/mol
O     0.00000   -0.00034    0.00000
H     0.76171    0.58873    0.00000
H    -0.76171    0.58873    0.00000
3
Step: 88 --- Kinetic Energy: 0.00002980 J/mol --- Potential Energy: -0.00095660 J/mol --- Total Energy: -0.00092679 J/mol
O     0.00000   -0.00035    0.00000
H     0.76179    0.58879    0.00000
H    -0.76179    0.58879    0.00000
3
Step: 89 --- Kinetic Energy: 0.00003047 J/mol --- Potential Energy: -0.00095593 J/mol --- Total Energy: -0.00092546 J/mol
O     0.00000   -0.00036    0.00000
H     0.76188    0.58885    0.00000
H    -0.76188    0.58885    0.00000
3
Step: 90 --- Kinetic Energy: 0.00003114 J/mol --- Potential Energy: -0.00095526 J/mol --- Total Energy: -0.00092412 J/mol
O     0.00000   -0.00037    0.00000
H     0.76197    0.58892    0.00000
H    -0.76197    0.58892    0.00000
3
Step: 91 --- Kinetic Energy: 0.00003182 J/mol --- Potential Energy: -0.00095458 J/mol --- Total Energy: -0.00092276 J/mol
O     0.00000   -0.00038    0.00000
H     0.76206    0.58898    0.00000
H    -0.76206    0.58898    0.00000
3
Step: 92 --- Kinetic Energy: 0.00003250 J/mol --- Potential Energy: -0.00095390 J/mol --- Total Energy: -0.00092139 J/mol
O     0.00000   -0.00038    0.00000
H     0.76215    0.58905    0.00000
H    -0.76215    0.58905    0.00000
3
Step: 93 --- Kinetic Energy: 0.00003320 J/mol --- Potential Energy: -0.00095321 J/mol --- Total Energy: -0.00092001 J/mol
O     0.00000   -0.00039    0.00000
H     0.76224    0.58912    0.00000
H    -0.76224    0.58912    0.00000
3
Step: 94 --- Kinetic Energy: 0.00003389 J/mol --- Potential Energy: -0.00095251 J/mol --- Total Energy: -0.00091861 J/mol
O     0.00000   -0.00040    0.00000
H     0.76233    0.58918    0.00000
H    -0.76233    0.58918    0.00000
3
Step: 95 --- Kinetic Energy: 0.00003460 J/mol --- Potential Energy: -0.00095180 J/mol --- Total Energy: -0.00091720 J/mol
O     0.00000   -0.00041    0.00000
H     0.76242    0.58925    0.00000
H    -0.76242    0.58925    0.00000
3
Step: 96 --- Kinetic Energy: 0.00003531 J/mol --- Potential Energy: -0.00095109 J/mol --- Total Energy: -0.00091578 J/mol
O     0.00000   -0.00042    0.00000
H     0.76251    0.58932    0.00000
H    -0.76251    0.58932    0.00000
3
Step: 97 --- Kinetic Energy: 0.00003603 J/mol --- Potential Energy: -0.00095037 J/mol --- Total Energy: -0.00091434 J/mol
O     0.00000   -0.00043    0.00000
H     0.76260    0.58939    0.00000
H    -0.76260    0.58939    0.00000
3
Step: 98 --- Kinetic Energy: 0.00003675 J/mol --- Potential Energy: -0.00094965 J/mol --- Total Energy: -0.00091289 J/mol
O     0.00000   -0.00044    0.00000
H     0.76270    0.58946    0.00000
H    -0.76270    0.58946    0.00000
3
Step: 99 --- Kinetic Energy: 0.00003749 J/mol --- Potential Energy: -0.00094891 J/mol --- Total Energy: -0.00091143 J/mol
O     0.00000   -0.00044    0.00000
H     0.76279    0.58953    0.00000
H    -0.76279    0.58953    0.00000
3
Step: 100 --- Kinetic Energy: 0.00003822 J/mol --- Potential Energy: -0.00094818 J/mol --- Total Energy: -0.00090995 J/mol
O     0.00000   -0.00045    0.00000
H     0.76289    0.58960    0.00000
H    -0.76289    0.58960    0.00000
3
Step: 101 --- Kinetic Energy: 0.00003897 J/mol --- Potential Energy: -0.00094743 J/mol --- Total Energy: -0.00090846 J/mol
O     0.00000   -0.00046    0.00000
H     0.76299    0.58967    0.00000
H    -0.76299    0.58967    0.00000
3
Step: 102 --- Kinetic Energy: 0.00003972 J/mol --- Potential Energy: -0.00094668 J/mol --- Total Energy: -0.00090696 J/mol
O     0.00000   -0.00047    0.00000
H     0.76309    0.58974    0.00000
H    -0.76309    0.58974    0.00000
3
Step: 103 --- Kinetic Energy: 0.00004048 J/mol --- Potential Energy: -0.00094592 J/mol --- Total Energy: -0.00090545 J/mol
O     0.00000   -0.00048    0.00000
H     0.76319    0.58982    0.00000
H    -0.76319    0.58982    0.00000
3
Step: 104 --- Kinetic Energy: 0.00004124 J/mol --- Potential Energy: -0.00094516 J/mol --- Total Energy: -0.00090392 J/mol
O     0.00000   -0.00049    0.00000
H     0.76329    0.58989    0.00000
H    -0.76329    0.58989    0.00000
3
Step: 105 --- Kinetic Energy: 0.00004201 J/mol --- Potential Energy: -0.00094439 J/mol --- Total Energy: -0.00090238 J/mol
O     0.00000   -0.00050    0.00000
H     0.76339    0.58996    0.00000
H    -0.76339    0.58996    0.00000
3
Step: 106 --- Kinetic Energy: 0.00004279 J/mol --- Potential Energy: -0.00094361 J/mol --- Total Energy: -0.00090082 J/mol
O     0.00000   -0.00051    0.00000
H     0.76349    0.59004    0.00000
H    -0.76349    0.59004    0.00000
3
Step: 107 --- Kinetic Energy: 0.00004357 J/mol --- Potential Energy: -0.00094283 J/mol --- Total Energy: -0.00089926 J/mol
O     0.00000   -0.00052    0.00000
H     0.76359    0.59011    0.00000
H    -0.76359    0.59011    0.00000
3
Step: 108 --- Kinetic Energy: 0.00004436 J/mol --- Potential Energy: -0.00094204 J/mol --- Total Energy: -0.00089768 J/mol
O     0.00000   -0.00053    0.00000
H     0.76370    0.59019    0.00000
H    -0.76370    0.59019    0.00000
3
Step: 109 --- Kinetic Energy: 0.00004516 J/mol --- Potential Energy: -0.00094124 J/mol --- Total Energy: -0.00089609 J/mol
O     0.00000   -0.00054    0.00000
H     0.76380    0.59027    0.00000
H    -0.76380    0.59027    0.00000
3
Step: 110 --- Kinetic Energy: 0.00004596 J/mol --- Potential Energy: -0.00094044 J/mol --- Total Energy: -0.00089448 J/mol
O     0.00000   -0.00055    0.00000
H     0.76391    0.59035    0.00000
H    -0.76391    0.59035    0.00000
3
Step: 111 --- Kinetic Energy: 0.00004677 J/mol --- Potential Energy: -0.00093963 J/mol --- Total Energy: -0.00089287 J/mol
O     0.00000   -0.00056    0.00000
H     0.76402    0.59043    0.00000
H    -0.76402    0.59043    0.00000
3
Step: 112 --- Kinetic Energy: 0.00004758 J/mol --- Potential Energy: -0.00093882 J/mol --- Total Energy: -0.00089124 J/mol
O     0.00000   -0.00057    0.00000
H     0.76412    0.59050    0.00000
H    -0.76412    0.59050    0.00000
3
Step: 113 --- Kinetic Energy: 0.00004840 J/mol --- Potential Energy: -0.00093800 J/mol --- Total Energy: -0.00088960 J/mol
O     0.00000   -0.00058    0.00000
H     0.76423    0.59058    0.00000
H    -0.76423    0.59058    0.00000
3
Step: 114 --- Kinetic Energy: 0.00004923 J/mol --- Potential Energy: -0.00093717 J/mol --- Total Energy: -0.00088794 J/mol
O     0.00000   -0.00059    0.00000
H     0.76434    0.59067    0.00000
H    -0.76434    0.59067    0.00000
3
Step: 115 --- Kinetic Energy: 0.00005006 J/mol --- Potential Energy: -0.00093634 J/mol --- Total Energy: -0.00088628 J/mol
O     0.00000   -0.00060    0.00000
H     0.76445    0.59075    0.00000
H    -0.76445    0.59075    0.00000
3
Step: 116 --- Kinetic Energy: 0.00005090 J/mol --- Potential Energy: -0.00093550 J/mol --- Total Energy: -0.00088460 J/mol
O     0.00000   -0.00061    0.00000
H     0.76456    0.59083    0.00000
H    -0.76456    0.59083    0.00000
3
Step: 117 --- Kinetic Energy: 0.00005175 J/mol --- Potential Energy: -0.00093465 J/mol --- Total Energy: -0.00088291 J/mol
O     0.00000   -0.00062    0.00000
H     0.76468    0.59091    0.00000
H    -0.76468    0.59091    0.00000
3
Step: 118 --- Kinetic Energy: 0.00005260 J/mol --- Potential Energy: -0.00093380 J/mol --- Total Energy: -0.00088121 J/mol
O     0.00000   -0.00063    0.00000
H     0.76479    0.59100    0.00000
H    -0.76479    0.59100    0.00000
3
Step: 119 --- Kinetic Energy: 0.00005345 J/mol --- Potential Energy: -0.00093295 J/mol --- Total Energy: -0.00087949 J/mol
O     0.00000   -0.00064    0.00000
H     0.76490    0.59108    0.00000
H    -0.76490    0.59108    0.00000
3
Step: 120 --- Kinetic Energy: 0.00005432 J/mol --- Potential Energy: -0.00093208 J/mol --- Total Energy: -0.00087776 J/mol
O     0.00000   -0.00065    0.00000
H     0.76502    0.59116    0.00000
H    -0.76502    0.59116    0.00000
3
Step: 121 --- Kinetic Energy: 0.00005519 J/mol --- Potential Energy: -0.00093121 J/mol --- Total Energy: -0.00087603 J/mol
O     0.00000   -0.00066    0.00000
H     0.76514    0.59125    0.00000
H    -0.76514    0.59125    0.00000
3
Step: 122 --- Kinetic Energy: 0.00005606 J/mol --- Potential Energy: -0.00093034 J/mol --- Total Energy: -0.00087427 J/mol
O     0.00000   -0.00067    0.00000
H     0.76525    0.59134    0.00000
H    -0.76525    0.59134    0.00000
3
Step: 123 --- Kinetic Energy: 0.00005694 J/mol --- Potential Energy: -0.00092946 J/mol --- Total Energy: -0.00087251 J/mol
O     0.00000   -0.00068    0.00000
H     0.76537    0.59142    0.00000
H    -0.76537    0.59142    0.00000
3
Step: 124 --- Kinetic Energy: 0.00005783 J/mol --- Potential Energy: -0.00092857 J/mol --- Total Energy: -0.00087074 J/mol
O     0.00000   -0.00069    0.00000
H     0.76549    0.59151    0.00000
H    -0.76549    0.59151    0.00000
3
Step: 125 --- Kinetic Energy: 0.00005872 J/mol --- Potential Energy: -0.00092768 J/mol --- Total Energy: -0.00086895 J/mol
O     0.00000   -0.00071    0.00000
H     0.76561    0.59160    0.00000
H    -0.76561    0.59160    0.00000
3
Step: 126 --- Kinetic Energy: 0.00005962 J/mol --- Potential Energy: -0.00092678 J/mol --- Total Energy: -0.00086716 J/mol
O     0.00000   -0.00072    0.00000
H     0.76573    0.59169    0.00000
H    -0.76573    0.59169    0.00000
3
Step: 127 --- Kinetic Energy: 0.00006053 J/mol --- Potential Energy: -0.00092587 J/mol --- Total Energy: -0.00086535 J/mol
O     0.00000   -0.00073    0.00000
H     0.76585    0.59178    0.00000
H    -0.76585    0.59178    0.00000
3
Step: 128 --- Kinetic Energy: 0.00006144 J/mol --- Potential Energy: -0.00092496 J/mol --- Total Energy: -0.00086353 J/mol
O     0.00000   -0.00074    0.00000
H     0.76598    0.59187    0.00000
H    -0.76598    0.59187    0.00000
3