12
Step: 0 --- Kinetic Energy: 0.00000000 J/mol --- Potential Energy: -0.00174621 J/mol --- Total Energy: -0.00174621 J/mol
C     0.00000    1.39600    0.00000
C     1.20900    0.69800    0.00000
C     1.20900   -0.69800    0.00000
C     0.00000   -1.39600    0.00000
C    -1.20900   -0.69800    0.00000
C    -1.20900    0.69800    0.00000
H     0.00000    2.47900    0.00000
H     2.14700    1.24000    0.00000
H     2.14700   -1.24000    0.00000
H     0.00000   -2.47900    0.00000
H    -2.14700   -1.24000    0.00000
H    -2.14700    1.24000    0.00000
12
Step: 1 --- Kinetic Energy: 0.00000021 J/mol --- Potential Energy: -0.00174642 J/mol --- Total Energy: -0.00174621 J/mol
C     0.00000    1.39600    0.00000
C     1.20900    0.69800    0.00000
C     1.20900   -0.69800    0.00000
C    -0.00000   -1.39600    0.00000
C    -1.20900   -0.69800    0.00000
C    -1.20900    0.69800    0.00000
H     0.00000    2.47897    0.00000
H     2.14698    1.23999    0.00000
H     2.14698   -1.23999    0.00000
H    -0.00000   -2.47897    0.00000
H    -2.14698   -1.23999    0.00000
H    -2.14698    1.23999    0.00000
12
Step: 2 --- Kinetic Energy: 0.00000084 J/mol --- Potential Energy: -0.00174704 J/mol --- Total Energy: -0.00174621 J/mol
C     0.00000    1.39601    0.00000
C     1.20901    0.69800    0.00000
C     1.20901   -0.69800    0.00000
C    -0.00000   -1.39601    0.00000
C    -1.20901   -0.69800    0.00000
C    -1.20901    0.69800    0.00000
H     0.00000    2.47890    0.00000
H     2.14691    1.23995    0.00000
H     2.14691   -1.23995    0.00000
H    -0.00000   -2.47890    0.00000
H    -2.14691   -1.23995    0.00000
H    -2.14691    1.23995    0.00000
12
Step: 3 --- Kinetic Energy: 0.00000188 J/mol --- Potential Energy: -0.00174809 J/mol --- Total Energy: -0.00174621 J/mol
C     0.00000    1.39602    0.00000
C     1.20901    0.69801    0.00000
C     1.20901   -0.69801    0.00000
C    -0.00000   -1.39602    0.00000
C    -1.20901   -0.69801    0.00000
C    -1.20901    0.69801    0.00000
H     0.00000    2.47877    0.00000
H     2.14680    1.23988    0.00000
H     2.14680   -1.23988    0.00000
H     0.00000   -2.47877    0.00000
H    -2.14680   -1.23988    0.00000
H    -2.14680    1.23988    0.00000
12
Step: 4 --- Kinetic Energy: 0.00000335 J/mol --- Potential Energy: -0.00174956 J/mol --- Total Energy: -0.00174621 J/mol
C     0.00000    1.39603    0.00000
C     1.20902    0.69801    0.00000
C     1.20902   -0.69801    0.00000
C    -0.00000   -1.39603    0.00000
C    -1.20902   -0.69801    0.00000
C    -1.20902    0.69801    0.00000
H     0.00000    2.47859    0.00000
H     2.14665    1.23980    0.00000
H     2.14665   -1.23980    0.00000
H     0.00000   -2.47859    0.00000
H    -2.14665   -1.23980    0.00000
H    -2.14665    1.23980    0.00000
12
Step: 5 --- Kinetic Energy: 0.00000524 J/mol --- Potential Energy: -0.00175144 J/mol --- Total Energy: -0.00174621 J/mol
C     0.00000    1.39604    0.00000
C     1.20904    0.69802    0.00000
C     1.20904   -0.69802    0.00000
C    -0.00000   -1.39604    0.00000
C    -1.20904   -0.69802    0.00000
C    -1.20904    0.69802    0.00000
H     0.00000    2.47836    0.00000
H     2.14645    1.23968    0.00000
H     2.14645   -1.23968    0.00000
H     0.00000   -2.47836    0.00000
H    -2.14645   -1.23968    0.00000
H    -2.14645    1.23968    0.00000
12
Step: 6 --- Kinetic Energy: 0.00000755 J/mol --- Potential Energy: -0.00175376 J/mol --- Total Energy: -0.00174621 J/mol
C     0.00000    1.39606    0.00000
C     1.20905    0.69803    0.00000
C     1.20905   -0.69803    0.00000
C    -0.00000   -1.39606    0.00000
C    -1.20905   -0.69803    0.00000
C    -1.20905    0.69803    0.00000
H     0.00000    2.47808    0.00000
H     2.14620    1.23954    0.00000
H     2.14620   -1.23954    0.00000
H     0.00000   -2.47808    0.00000
H    -2.14620   -1.23954    0.00000
H    -2.14620    1.23954    0.00000
12
Step: 7 --- Kinetic Energy: 0.00001030 J/mol --- Potential Energy: -0.00175650 J/mol --- Total Energy: -0.00174621 J/mol
C     0.00000    1.39609    0.00000
C     1.20907    0.69804    0.00000
C     1.20907   -0.69804    0.00000
C    -0.00000   -1.39609    0.00000
C    -1.20907   -0.69804    0.00000
C    -1.20907    0.69804    0.00000
H     0.00000    2.47774    0.00000
H     2.14591    1.23937    0.00000
H     2.14591   -1.23937    0.00000
H     0.00000   -2.47774    0.00000
H    -2.14591   -1.23937    0.00000
H    -2.14591    1.23937    0.00000
12
Step: 8 --- Kinetic Energy: 0.00001347 J/mol --- Potential Energy: -0.00175968 J/mol --- Total Energy: -0.00174621 J/mol
C     0.00000    1.39611    0.00000
C     1.20910    0.69806    0.00000
C     1.20910   -0.69806    0.00000
C    -0.00000   -1.39611    0.00000
C    -1.20910   -0.69806    0.00000
C    -1.20910    0.69806    0.00000
H     0.00000    2.47736    0.00000
H     2.14558    1.23918    0.00000
H     2.14558   -1.23918    0.00000
H     0.00000   -2.47736    0.00000
H    -2.14558   -1.23918    0.00000
H    -2.14558    1.23918    0.00000
12
Step: 9 --- Kinetic Energy: 0.00001708 J/mol --- Potential Energy: -0.00176329 J/mol --- Total Energy: -0.00174621 J/mol
C     0.00000    1.39614    0.00000
C     1.20912    0.69807    0.00000
C     1.20912   -0.69807    0.00000
C    -0.00000   -1.39614    0.00000
C    -1.20912   -0.69807    0.00000
C    -1.20912    0.69807    0.00000
H     0.00000    2.47692    0.00000
H     2.14520    1.23896    0.00000
H     2.14520   -1.23896    0.00000
H     0.00000   -2.47692    0.00000
H    -2.14520   -1.23896    0.00000
H    -2.14520    1.23896    0.00000
12
Step: 10 --- Kinetic Energy: 0.00002114 J/mol --- Potential Energy: -0.00176734 J/mol --- Total Energy: -0.00174620 J/mol
C     0.00000    1.39617    0.00000
C     1.20915    0.69809    0.00000
C     1.20915   -0.69809    0.00000
C    -0.00000   -1.39617    0.00000
C    -1.20915   -0.69809    0.00000
C    -1.20915    0.69809    0.00000
H     0.00000    2.47643    0.00000
H     2.14478    1.23872    0.00000
H     2.14478   -1.23872    0.00000
H     0.00000   -2.47643    0.00000
H    -2.14478   -1.23872    0.00000
H    -2.14478    1.23872    0.00000
12
Step: 11 --- Kinetic Energy: 0.00002564 J/mol --- Potential Energy: -0.00177185 J/mol --- Total Energy: -0.00174620 J/mol
C     0.00000    1.39621    0.00000
C     1.20918    0.69811    0.00000
C     1.20918   -0.69811    0.00000
C    -0.00000   -1.39621    0.00000
C    -1.20918   -0.69811    0.00000
C    -1.20918    0.69811    0.00000
H     0.00000    2.47589    0.00000
H     2.14431    1.23845    0.00000
H     2.14431   -1.23845    0.00000
H     0.00000   -2.47589    0.00000
H    -2.14431   -1.23845    0.00000
H    -2.14431    1.23845    0.00000
12
Step: 12 --- Kinetic Energy: 0.00003060 J/mol --- Potential Energy: -0.00177680 J/mol --- Total Energy: -0.00174620 J/mol
C     0.00000    1.39625    0.00000
C     1.20922    0.69813    0.00000
C     1.20922   -0.69813    0.00000
C    -0.00000   -1.39625    0.00000
C    -1.20922   -0.69813    0.00000
C    -1.20922    0.69813    0.00000
H     0.00000    2.47529    0.00000
H     2.14380    1.23815    0.00000
H     2.14380   -1.23815    0.00000
H     0.00000   -2.47529    0.00000
H    -2.14380   -1.23815    0.00000
H    -2.14380    1.23815    0.00000
12
Step: 13 --- Kinetic Energy: 0.00003602 J/mol --- Potential Energy: -0.00178222 J/mol --- Total Energy: -0.00174620 J/mol
C     0.00000    1.39630    0.00000
C     1.20925    0.69815    0.00000
C     1.20925   -0.69815    0.00000
C    -0.00000   -1.39630    0.00000
C    -1.20925   -0.69815    0.00000
C    -1.20925    0.69815    0.00000
H     0.00000    2.47465    0.00000
H     2.14324    1.23783    0.00000
H     2.14324   -1.23783    0.00000
H     0.00000   -2.47465    0.00000
H    -2.14324   -1.23783    0.00000
H    -2.14324    1.23783    0.00000
12
Step: 14 --- Kinetic Energy: 0.00004191 J/mol --- Potential Energy: -0.00178811 J/mol --- Total Energy: -0.00174620 J/mol
C     0.00000    1.39634    0.00000
C     1.20930    0.69817    0.00000
C     1.20930   -0.69817    0.00000
C    -0.00000   -1.39634    0.00000
C    -1.20930   -0.69817    0.00000
C    -1.20930    0.69817    0.00000
H     0.00000    2.47395    0.00000
H     2.14264    1.23748    0.00000
H     2.14264   -1.23748    0.00000
H     0.00000   -2.47395    0.00000
H    -2.14264   -1.23748    0.00000
H    -2.14264    1.23748    0.00000
12
Step: 15 --- Kinetic Energy: 0.00004828 J/mol --- Potential Energy: -0.00179448 J/mol --- Total Energy: -0.00174620 J/mol
C     0.00000    1.39639    0.00000
C     1.20934    0.69820    0.00000
C     1.20934   -0.69820    0.00000
C    -0.00000   -1.39639    0.00000
C    -1.20934   -0.69820    0.00000
C    -1.20934    0.69820    0.00000
H    -0.00000    2.47320    0.00000
H     2.14198    1.23710    0.00000
H     2.14198   -1.23710    0.00000
H     0.00000   -2.47320    0.00000
H    -2.14198   -1.23710    0.00000
H    -2.14198    1.23710    0.00000
12
Step: 16 --- Kinetic Energy: 0.00005513 J/mol --- Potential Energy: -0.00180134 J/mol --- Total Energy: -0.00174620 J/mol
C     0.00000    1.39645    0.00000
C     1.20939    0.69822    0.00000
C     1.20939   -0.69822    0.00000
C    -0.00000   -1.39645    0.00000
C    -1.20939   -0.69822    0.00000
C    -1.20939    0.69822    0.00000
H     0.00000    2.47239    0.00000
H     2.14129    1.23670    0.00000
H     2.14129   -1.23670    0.00000
H     0.00000   -2.47239    0.00000
H    -2.14129   -1.23670    0.00000
H    -2.14129    1.23670    0.00000
12
Step: 17 --- Kinetic Energy: 0.00006249 J/mol --- Potential Energy: -0.00180869 J/mol --- Total Energy: -0.00174620 J/mol
C     0.00000    1.39651    0.00000
C     1.20944    0.69825    0.00000
C     1.20944   -0.69825    0.00000
C    -0.00000   -1.39651    0.00000
C    -1.20944   -0.69825    0.00000
C    -1.20944    0.69825    0.00000
H     0.00000    2.47153    0.00000
H     2.14055    1.23627    0.00000
H     2.14055   -1.23627    0.00000
H     0.00000   -2.47153    0.00000
H    -2.14055   -1.23627    0.00000
H    -2.14055    1.23627    0.00000
12
Step: 18 --- Kinetic Energy: 0.00007036 J/mol --- Potential Energy: -0.00181656 J/mol --- Total Energy: -0.00174620 J/mol
C     0.00000    1.39657    0.00000
C     1.20949    0.69828    0.00000
C     1.20949   -0.69828    0.00000
C    -0.00000   -1.39657    0.00000
C    -1.20949   -0.69828    0.00000
C    -1.20949    0.69828    0.00000
H     0.00000    2.47062    0.00000
H     2.13976    1.23582    0.00000
H     2.13976   -1.23582    0.00000
H     0.00000   -2.47062    0.00000
H    -2.13976   -1.23582    0.00000
H    -2.13976    1.23582    0.00000
12
Step: 19 --- Kinetic Energy: 0.00007875 J/mol --- Potential Energy: -0.00182494 J/mol --- Total Energy: -0.00174620 J/mol
C     0.00000    1.39664    0.00000
C     1.20955    0.69832    0.00000
C     1.20955   -0.69832    0.00000
C    -0.00000   -1.39664    0.00000
C    -1.20955   -0.69832    0.00000
C    -1.20955    0.69832    0.00000
H     0.00000    2.46965    0.00000
H     2.13892    1.23533    0.00000
H     2.13892   -1.23533    0.00000
H     0.00000   -2.46965    0.00000
H    -2.13892   -1.23533    0.00000
H    -2.13892    1.23533    0.00000
12
Step: 20 --- Kinetic Energy: 0.00008767 J/mol --- Potential Energy: -0.00183387 J/mol --- Total Energy: -0.00174620 J/mol
C     0.00000    1.39670    0.00000
C     1.20961    0.69835    0.00000
C     1.20961   -0.69835    0.00000
C    -0.00000   -1.39670    0.00000
C    -1.20961   -0.69835    0.00000
C    -1.20961    0.69835    0.00000
H     0.00000    2.46863    0.00000
H     2.13804    1.23482    0.00000
H     2.13804   -1.23482    0.00000
H     0.00000   -2.46863    0.00000
H    -2.13804   -1.23482    0.00000
H    -2.13804    1.23482    0.00000
12
Step: 21 --- Kinetic Energy: 0.00009714 J/mol --- Potential Energy: -0.00184334 J/mol --- Total Energy: -0.00174620 J/mol
C     0.00000    1.39678    0.00000
C     1.20967    0.69839    0.00000
C     1.20967   -0.69839    0.00000
C    -0.00000   -1.39678    0.00000
C    -1.20967   -0.69839    0.00000
C    -1.20967    0.69839    0.00000
H     0.00000    2.46755    0.00000
H     2.13711    1.23428    0.00000
H     2.13711   -1.23428    0.00000
H     0.00000   -2.46755    0.00000
H    -2.13711   -1.23428    0.00000
H    -2.13711    1.23428    0.00000
12
Step: 22 --- Kinetic Energy: 0.00010718 J/mol --- Potential Energy: -0.00185338 J/mol --- Total Energy: -0.00174620 J/mol
C     0.00000    1.39686    0.00000
C     1.20974    0.69843    0.00000
C     1.20974   -0.69843    0.00000
C    -0.00000   -1.39686    0.00000
C    -1.20974   -0.69843    0.00000
C    -1.20974    0.69843    0.00000
H     0.00000    2.46642    0.00000
H     2.13613    1.23372    0.00000
H     2.13613   -1.23372    0.00000
H     0.00000   -2.46642    0.00000
H    -2.13613   -1.23372    0.00000
H    -2.13613    1.23372    0.00000
12
Step: 23 --- Kinetic Energy: 0.00011780 J/mol --- Potential Energy: -0.00186400 J/mol --- Total Energy: -0.00174620 J/mol
C     0.00000    1.39694    0.00000
C     1.20981    0.69847    0.00000
C     1.20981   -0.69847    0.00000
C    -0.00000   -1.39694    0.00000
C    -1.20981   -0.69847    0.00000
C    -1.20981    0.69847    0.00000
H     0.00000    2.46523    0.00000
H     2.13510    1.23312    0.00000
H     2.13510   -1.23312    0.00000
H     0.00000   -2.46523    0.00000
H    -2.13510   -1.23312    0.00000
H    -2.13510    1.23312    0.00000
12
Step: 24 --- Kinetic Energy: 0.00012902 J/mol --- Potential Energy: -0.00187521 J/mol --- Total Energy: -0.00174619 J/mol
C     0.00000    1.39702    0.00000
C     1.20988    0.69851    0.00000
C     1.20988   -0.69851    0.00000
C    -0.00000   -1.39702    0.00000
C    -1.20988   -0.69851    0.00000
C    -1.20988    0.69851    0.00000
H     0.00000    2.46398    0.00000
H     2.13403    1.23250    0.00000
H     2.13403   -1.23250    0.00000
H     0.00000   -2.46398    0.00000
H    -2.13403   -1.23250    0.00000
H    -2.13403    1.23250    0.00000
12
Step: 25 --- Kinetic Energy: 0.00014085 J/mol --- Potential Energy: -0.00188705 J/mol --- Total Energy: -0.00174619 J/mol
C     0.00000    1.39711    0.00000
C     1.20996    0.69855    0.00000
C     1.20996   -0.69855    0.00000
C    -0.00000   -1.39711    0.00000
C    -1.20996   -0.69855    0.00000
C    -1.20996    0.69855    0.00000
H     0.00000    2.46268    0.00000
H     2.13290    1.23185    0.00000
H     2.13290   -1.23185    0.00000
H     0.00000   -2.46268    0.00000
H    -2.13290   -1.23185    0.00000
H    -2.13290    1.23185    0.00000
12
Step: 26 --- Kinetic Energy: 0.00015333 J/mol --- Potential Energy: -0.00189952 J/mol --- Total Energy: -0.00174619 J/mol
C     0.00000    1.39720    0.00000
C     1.21004    0.69860    0.00000
C     1.21004   -0.69860    0.00000
C    -0.00000   -1.39720    0.00000
C    -1.21004   -0.69860    0.00000
C    -1.21004    0.69860    0.00000
H     0.00000    2.46132    0.00000
H     2.13173    1.23118    0.00000
H     2.13173   -1.23118    0.00000
H     0.00000   -2.46132    0.00000
H    -2.13173   -1.23118    0.00000
H    -2.13173    1.23118    0.00000
12
Step: 27 --- Kinetic Energy: 0.00016646 J/mol --- Potential Energy: -0.00191265 J/mol --- Total Energy: -0.00174619 J/mol
C     0.00000    1.39730    0.00000
C     1.21012    0.69865    0.00000
C     1.21012   -0.69865    0.00000
C    -0.00000   -1.39730    0.00000
C    -1.21012   -0.69865    0.00000
C    -1.21012    0.69865    0.00000
H     0.00000    2.45991    0.00000
H     2.13050    1.23047    0.00000
H     2.13050   -1.23047    0.00000
H     0.00000   -2.45991    0.00000
H    -2.13050   -1.23047    0.00000
H    -2.13050    1.23047    0.00000
12
Step: 28 --- Kinetic Energy: 0.00018027 J/mol --- Potential Energy: -0.00192646 J/mol --- Total Energy: -0.00174619 J/mol
C     0.00000    1.39740    0.00000
C     1.21021    0.69870    0.00000
C     1.21021   -0.69870    0.00000
C    -0.00000   -1.39740    0.00000
C    -1.21021   -0.69870    0.00000
C    -1.21021    0.69870    0.00000
H     0.00000    2.45843    0.00000
H     2.12923    1.22973    0.00000
H     2.12923   -1.22973    0.00000
H     0.00000   -2.45843    0.00000
H    -2.12923   -1.22973    0.00000
H    -2.12923    1.22973    0.00000
12
Step: 29 --- Kinetic Energy: 0.00019479 J/mol --- Potential Energy: -0.00194098 J/mol --- Total Energy: -0.00174619 J/mol
C     0.00000    1.39751    0.00000
C     1.21030    0.69875    0.00000
C     1.21030   -0.69875    0.00000
C    -0.00000   -1.39751    0.00000
C    -1.21030   -0.69875    0.00000
C    -1.21030    0.69875    0.00000
H     0.00000    2.45690    0.00000
H     2.12790    1.22897    0.00000
H     2.12790   -1.22897    0.00000
H     0.00000   -2.45690    0.00000
H    -2.12790   -1.22897    0.00000
H    -2.12790    1.22897    0.00000
12
Step: 30 --- Kinetic Energy: 0.00021004 J/mol --- Potential Energy: -0.00195623 J/mol --- Total Energy: -0.00174618 J/mol
C     0.00000    1.39762    0.00000
C     1.21040    0.69881    0.00000
C     1.21040   -0.69881    0.00000
C    -0.00000   -1.39762    0.00000
C    -1.21040   -0.69881    0.00000
C    -1.21040    0.69881    0.00000
H     0.00000    2.45530    0.00000
H     2.12652    1.22817    0.00000
H     2.12652   -1.22817    0.00000
H     0.00000   -2.45530    0.00000
H    -2.12652   -1.22817    0.00000
H    -2.12652    1.22817    0.00000
12
Step: 31 --- Kinetic Energy: 0.00022606 J/mol --- Potential Energy: -0.00197224 J/mol --- Total Energy: -0.00174618 J/mol
C     0.00000    1.39773    0.00000
C     1.21049    0.69886    0.00000
C     1.21049   -0.69886    0.00000
C    -0.00000   -1.39773    0.00000
C    -1.21049   -0.69886    0.00000
C    -1.21049    0.69886    0.00000
H     0.00000    2.45365    0.00000
H     2.12510    1.22734    0.00000
H     2.12510   -1.22734    0.00000
H     0.00000   -2.45365    0.00000
H    -2.12510   -1.22734    0.00000
H    -2.12510    1.22734    0.00000
12
Step: 32 --- Kinetic Energy: 0.00024286 J/mol --- Potential Energy: -0.00198904 J/mol --- Total Energy: -0.00174618 J/mol
C     0.00000    1.39785    0.00000
C     1.21059    0.69892    0.00000
C     1.21059   -0.69892    0.00000
C    -0.00000   -1.39785    0.00000
C    -1.21059   -0.69892    0.00000
C    -1.21059    0.69892    0.00000
H     0.00000    2.45193    0.00000
H     2.12361    1.22649    0.00000
H     2.12361   -1.22649    0.00000
H     0.00000   -2.45193    0.00000
H    -2.12361   -1.22649    0.00000
H    -2.12361    1.22649    0.00000
12
Step: 33 --- Kinetic Energy: 0.00026049 J/mol --- Potential Energy: -0.00200667 J/mol --- Total Energy: -0.00174618 J/mol
C     0.00000    1.39797    0.00000
C     1.21070    0.69898    0.00000
C     1.21070   -0.69898    0.00000
C    -0.00000   -1.39797    0.00000
C    -1.21070   -0.69898    0.00000
C    -1.21070    0.69898    0.00000
H     0.00000    2.45015    0.00000
H     2.12208    1.22560    0.00000
H     2.12208   -1.22560    0.00000
H     0.00000   -2.45015    0.00000
H    -2.12208   -1.22560    0.00000
H    -2.12208    1.22560    0.00000
12
Step: 34 --- Kinetic Energy: 0.00027897 J/mol --- Potential Energy: -0.00202515 J/mol --- Total Energy: -0.00174618 J/mol
C     0.00000    1.39810    0.00000
C     1.21081    0.69905    0.00000
C     1.21081   -0.69905    0.00000
C    -0.00000   -1.39810    0.00000
C    -1.21081   -0.69905    0.00000
C    -1.21081    0.69905    0.00000
H     0.00000    2.44831    0.00000
H     2.12049    1.22468    0.00000
H     2.12049   -1.22468    0.00000
H     0.00000   -2.44831    0.00000
H    -2.12049   -1.22468    0.00000
H    -2.12049    1.22468    0.00000
12
Step: 35 --- Kinetic Energy: 0.00029835 J/mol --- Potential Energy: -0.00204452 J/mol --- Total Energy: -0.00174617 J/mol
C     0.00000    1.39823    0.00000
C     1.21092    0.69911    0.00000
C     1.21092   -0.69911    0.00000
C    -0.00000   -1.39823    0.00000
C    -1.21092   -0.69911    0.00000
C    -1.21092    0.69911    0.00000
H     0.00000    2.44641    0.00000
H     2.11884    1.22373    0.00000
H     2.11884   -1.22373    0.00000
H     0.00000   -2.44641    0.00000
H    -2.11884   -1.22373    0.00000
H    -2.11884    1.22373    0.00000
12
Step: 36 --- Kinetic Energy: 0.00031866 J/mol --- Potential Energy: -0.00206483 J/mol --- Total Energy: -0.00174617 J/mol
C     0.00000    1.39836    0.00000
C     1.21104    0.69918    0.00000
C     1.21104   -0.69918    0.00000
C    -0.00000   -1.39836    0.00000
C    -1.21104   -0.69918    0.00000
C    -1.21104    0.69918    0.00000
H     0.00000    2.44444    0.00000
H     2.11714    1.22275    0.00000
H     2.11714   -1.22275    0.00000
H     0.00000   -2.44444    0.00000
H    -2.11714   -1.22275    0.00000
H    -2.11714    1.22275    0.00000
12
Step: 37 --- Kinetic Energy: 0.00033994 J/mol --- Potential Energy: -0.00208611 J/mol --- Total Energy: -0.00174617 J/mol
C     0.00000    1.39850    0.00000
C     1.21116    0.69925    0.00000
C     1.21116   -0.69925    0.00000
C     0.00000   -1.39850    0.00000
C    -1.21116   -0.69925    0.00000
C    -1.21116    0.69925    0.00000
H     0.00000    2.44241    0.00000
H     2.11539    1.22173    0.00000
H     2.11539   -1.22173    0.00000
H     0.00000   -2.44241    0.00000
H    -2.11539   -1.22173    0.00000
H    -2.11539    1.22173    0.00000
12
Step: 38 --- Kinetic Energy: 0.00036225 J/mol --- Potential Energy: -0.00210841 J/mol --- Total Energy: -0.00174617 J/mol
C     0.00000    1.39865    0.00000
C     1.21129    0.69932    0.00000
C     1.21129   -0.69932    0.00000
C     0.00000   -1.39865    0.00000
C    -1.21129   -0.69932    0.00000
C    -1.21129    0.69932    0.00000
H     0.00000    2.44031    0.00000
H     2.11357    1.22069    0.00000
H     2.11357   -1.22069    0.00000
H     0.00000   -2.44031    0.00000
H    -2.11357   -1.22069    0.00000
H    -2.11357    1.22069    0.00000
12
Step: 39 --- Kinetic Energy: 0.00038562 J/mol --- Potential Energy: -0.00213178 J/mol --- Total Energy: -0.00174616 J/mol
C     0.00000    1.39880    0.00000
C     1.21142    0.69940    0.00000
C     1.21142   -0.69940    0.00000
C     0.00000   -1.39880    0.00000
C    -1.21142   -0.69940    0.00000
C    -1.21142    0.69940    0.00000
H     0.00000    2.43814    0.00000
H     2.11170    1.21961    0.00000
H     2.11170   -1.21961    0.00000
H     0.00000   -2.43814    0.00000
H    -2.11170   -1.21961    0.00000
H    -2.11170    1.21961    0.00000
12
Step: 40 --- Kinetic Energy: 0.00041011 J/mol --- Potential Energy: -0.00215627 J/mol --- Total Energy: -0.00174616 J/mol
C     0.00000    1.39895    0.00000
C     1.21155    0.69947    0.00000
C     1.21155   -0.69947    0.00000
C     0.00000   -1.39895    0.00000
C    -1.21155   -0.69947    0.00000
C    -1.21155    0.69947    0.00000
H     0.00000    2.43591    0.00000
H     2.10977    1.21849    0.00000
H     2.10977   -1.21849    0.00000
H     0.00000   -2.43591    0.00000
H    -2.10977   -1.21849    0.00000
H    -2.10977    1.21849    0.00000
12
Step: 41 --- Kinetic Energy: 0.00043578 J/mol --- Potential Energy: -0.00218194 J/mol --- Total Energy: -0.00174615 J/mol
C     0.00000    1.39911    0.00000
C     1.21169    0.69955    0.00000
C     1.21169   -0.69955    0.00000
C     0.00000   -1.39911    0.00000
C    -1.21169   -0.69955    0.00000
C    -1.21169    0.69955    0.00000
H     0.00000    2.43361    0.00000
H     2.10778    1.21734    0.00000
H     2.10778   -1.21734    0.00000
H     0.00000   -2.43361    0.00000
H    -2.10778   -1.21734    0.00000
H    -2.10778    1.21734    0.00000
12
Step: 42 --- Kinetic Energy: 0.00046269 J/mol --- Potential Energy: -0.00220884 J/mol --- Total Energy: -0.00174615 J/mol
C     0.00000    1.39928    0.00000
C     1.21183    0.69964    0.00000
C     1.21183   -0.69964    0.00000
C     0.00000   -1.39928    0.00000
C    -1.21183   -0.69964    0.00000
C    -1.21183    0.69964    0.00000
H     0.00000    2.43123    0.00000
H     2.10573    1.21616    0.00000
H     2.10573   -1.21616    0.00000
H     0.00000   -2.43123    0.00000
H    -2.10573   -1.21616    0.00000
H    -2.10573    1.21616    0.00000
12
Step: 43 --- Kinetic Energy: 0.00049089 J/mol --- Potential Energy: -0.00223704 J/mol --- Total Energy: -0.00174615 J/mol
C     0.00000    1.39945    0.00000
C     1.21198    0.69972    0.00000
C     1.21198   -0.69972    0.00000
C     0.00000   -1.39945    0.00000
C    -1.21198   -0.69972    0.00000
C    -1.21198    0.69972    0.00000
H     0.00000    2.42879    0.00000
H     2.10362    1.21494    0.00000
H     2.10362   -1.21494    0.00000
H     0.00000   -2.42879    0.00000
H    -2.10362   -1.21494    0.00000
H    -2.10362    1.21494    0.00000
12
Step: 44 --- Kinetic Energy: 0.00052046 J/mol --- Potential Energy: -0.00226661 J/mol --- Total Energy: -0.00174614 J/mol
C     0.00000    1.39962    0.00000
C     1.21213    0.69981    0.00000
C     1.21213   -0.69981    0.00000
C     0.00000   -1.39962    0.00000
C    -1.21213   -0.69981    0.00000
C    -1.21213    0.69981    0.00000
H     0.00000    2.42627    0.00000
H     2.10145    1.21368    0.00000
H     2.10145   -1.21368    0.00000
H     0.00000   -2.42627    0.00000
H    -2.10145   -1.21368    0.00000
H    -2.10145    1.21368    0.00000
12
Step: 45 --- Kinetic Energy: 0.00055148 J/mol --- Potential Energy: -0.00229762 J/mol --- Total Energy: -0.00174614 J/mol
C     0.00000    1.39980    0.00000
C     1.21228    0.69990    0.00000
C     1.21228   -0.69990    0.00000
C     0.00000   -1.39980    0.00000
C    -1.21228   -0.69990    0.00000
C    -1.21228    0.69990    0.00000
H     0.00000    2.42368    0.00000
H     2.09921    1.21239    0.00000
H     2.09921   -1.21239    0.00000
H     0.00000   -2.42368    0.00000
H    -2.09921   -1.21239    0.00000
H    -2.09921    1.21239    0.00000
12
Step: 46 --- Kinetic Energy: 0.00058402 J/mol --- Potential Energy: -0.00233015 J/mol --- Total Energy: -0.00174613 J/mol
C     0.00000    1.39999    0.00000
C     1.21244    0.69999    0.00000
C     1.21244   -0.69999    0.00000
C     0.00000   -1.39999    0.00000
C    -1.21244   -0.69999    0.00000
C    -1.21244    0.69999    0.00000
H     0.00000    2.42101    0.00000
H     2.09690    1.21105    0.00000
H     2.09690   -1.21105    0.00000
H     0.00000   -2.42101    0.00000
H    -2.09690   -1.21105    0.00000
H    -2.09690    1.21105    0.00000
12
Step: 47 --- Kinetic Energy: 0.00061818 J/mol --- Potential Energy: -0.00236430 J/mol --- Total Energy: -0.00174612 J/mol
C     0.00000    1.40018    0.00000
C     1.21261    0.70009    0.00000
C     1.21261   -0.70009    0.00000
C     0.00000   -1.40018    0.00000
C    -1.21261   -0.70009    0.00000
C    -1.21261    0.70009    0.00000
H     0.00000    2.41826    0.00000
H     2.09453    1.20968    0.00000
H     2.09453   -1.20968    0.00000
H     0.00000   -2.41826    0.00000
H    -2.09453   -1.20968    0.00000
H    -2.09453    1.20968    0.00000
12
Step: 48 --- Kinetic Energy: 0.00065403 J/mol --- Potential Energy: -0.00240015 J/mol --- Total Energy: -0.00174612 J/mol
C     0.00000    1.40038    0.00000
C     1.21278    0.70018    0.00000
C     1.21278   -0.70018    0.00000
C     0.00000   -1.40038    0.00000
C    -1.21278   -0.70018    0.00000
C    -1.21278    0.70018    0.00000
H     0.00000    2.41544    0.00000
H     2.09209    1.20827    0.00000
H     2.09209   -1.20827    0.00000
H     0.00000   -2.41544    0.00000
H    -2.09209   -1.20827    0.00000
H    -2.09209    1.20827    0.00000
12
Step: 49 --- Kinetic Energy: 0.00069169 J/mol --- Potential Energy: -0.00243780 J/mol --- Total Energy: -0.00174611 J/mol
C     0.00000    1.40058    0.00000
C     1.21296    0.70029    0.00000
C     1.21296   -0.70029    0.00000
C     0.00000   -1.40058    0.00000
C    -1.21296   -0.70029    0.00000
C    -1.21296    0.70029    0.00000
H     0.00000    2.41253    0.00000
H     2.08958    1.20683    0.00000
H     2.08958   -1.20683    0.00000
H     0.00000   -2.41253    0.00000
H    -2.08958   -1.20683    0.00000
H    -2.08958    1.20683    0.00000
12
Step: 50 --- Kinetic Energy: 0.00073127 J/mol --- Potential Energy: -0.00247737 J/mol --- Total Energy: -0.00174610 J/mol
C     0.00000    1.40079    0.00000
C     1.21314    0.70039    0.00000
C     1.21314   -0.70039    0.00000
C     0.00000   -1.40079    0.00000
C    -1.21314   -0.70039    0.00000
C    -1.21314    0.70039    0.00000
H     0.00000    2.40955    0.00000
H     2.08701    1.20534    0.00000
H     2.08701   -1.20534    0.00000
H     0.00000   -2.40955    0.00000
H    -2.08701   -1.20534    0.00000
H    -2.08701    1.20534    0.00000
12
Step: 51 --- Kinetic Energy: 0.00077288 J/mol --- Potential Energy: -0.00251898 J/mol --- Total Energy: -0.00174609 J/mol
C     0.00000    1.40101    0.00000
C     1.21332    0.70050    0.00000
C     1.21332   -0.70050    0.00000
C     0.00000   -1.40101    0.00000
C    -1.21332   -0.70050    0.00000
C    -1.21332    0.70050    0.00000
H     0.00000    2.40648    0.00000
H     2.08435    1.20380    0.00000
H     2.08435   -1.20380    0.00000
H     0.00000   -2.40648    0.00000
H    -2.08435   -1.20380    0.00000
H    -2.08435    1.20380    0.00000
12
Step: 52 --- Kinetic Energy: 0.00081666 J/mol --- Potential Energy: -0.00256274 J/mol --- Total Energy: -0.00174608 J/mol
C     0.00000    1.40123    0.00000
C     1.21351    0.70061    0.00000
C     1.21351   -0.70061    0.00000
C     0.00000   -1.40123    0.00000
C    -1.21351   -0.70061    0.00000
C    -1.21351    0.70061    0.00000
H     0.00000    2.40332    0.00000
H     2.08163    1.20223    0.00000
H     2.08163   -1.20223    0.00000
H     0.00000   -2.40332    0.00000
H    -2.08163   -1.20223    0.00000
H    -2.08163    1.20223    0.00000
12
Step: 53 --- Kinetic Energy: 0.00086274 J/mol --- Potential Energy: -0.00260881 J/mol --- Total Energy: -0.00174607 J/mol
C     0.00000    1.40146    0.00000
C     1.21371    0.70072    0.00000
C     1.21371   -0.70072    0.00000
C     0.00000   -1.40146    0.00000
C    -1.21371   -0.70072    0.00000
C    -1.21371    0.70072    0.00000
H     0.00000    2.40008    0.00000
H     2.07883    1.20061    0.00000
H     2.07883   -1.20061    0.00000
H     0.00000   -2.40008    0.00000