5
Step: 0 --- Kinetic Energy: 0.00000000 J/mol --- Potential Energy: -0.00095533 J/mol --- Total Energy: -0.00095533 J/mol
C     0.00000    0.00000    0.00000
H     0.62900    0.62900    0.62900
H    -0.62900   -0.62900    0.62900
H     0.62900   -0.62900   -0.62900
H    -0.62900    0.62900   -0.62900
5
Step: 1 --- Kinetic Energy: 0.00000014 J/mol --- Potential Energy: -0.00095547 J/mol --- Total Energy: -0.00095533 J/mol
C     0.00000    0.00000    0.00000
H     0.62898    0.62898    0.62898
H    -0.62898   -0.62898    0.62898
H     0.62898   -0.62898   -0.62898
H    -0.62898    0.62898   -0.62898
5
Step: 2 --- Kinetic Energy: 0.00000055 J/mol --- Potential Energy: -0.00095588 J/mol --- Total Energy: -0.00095533 J/mol
C     0.00000    0.00000    0.00000
H     0.62894    0.62894    0.62894
H    -0.62894   -0.62894    0.62894
H     0.62894   -0.62894   -0.62894
H    -0.62894    0.62894   -0.62894
5
Step: 3 --- Kinetic Energy: 0.00000124 J/mol --- Potential Energy: -0.00095657 J/mol --- Total Energy: -0.00095533 J/mol
C     0.00000    0.00000    0.00000
H     0.62886    0.62886    0.62886
H    -0.62886   -0.62886    0.62886
H     0.62886   -0.62886   -0.62886
H    -0.62886    0.62886   -0.62886
5
Step: 4 --- Kinetic Energy: 0.00000220 J/mol --- Potential Energy: -0.00095753 J/mol --- Total Energy: -0.00095533 J/mol
C     0.00000    0.00000    0.00000
H     0.62876    0.62876    0.62876
H    -0.62876   -0.62876    0.62876
H     0.62876   -0.62876   -0.62876
H    -0.62876    0.62876   -0.62876
5
Step: 5 --- Kinetic Energy: 0.00000344 J/mol --- Potential Energy: -0.00095877 J/mol --- Total Energy: -0.00095533 J/mol
C     0.00000    0.00000    0.00000
H     0.62862    0.62862    0.62862
H    -0.62862   -0.62862    0.62862
H     0.62862   -0.62862   -0.62862
H    -0.62862    0.62862   -0.62862
5
Step: 6 --- Kinetic Energy: 0.00000496 J/mol --- Potential Energy: -0.00096029 J/mol --- Total Energy: -0.00095533 J/mol
C     0.00000    0.00000    0.00000
H     0.62846    0.62846    0.62846
H    -0.62846   -0.62846    0.62846
H     0.62846   -0.62846   -0.62846
H    -0.62846    0.62846   -0.62846
5
Step: 7 --- Kinetic Energy: 0.00000675 J/mol --- Potential Energy: -0.00096209 J/mol --- Total Energy: -0.00095533 J/mol
C     0.00000    0.00000    0.00000
H     0.62826    0.62826    0.62826
H    -0.62826   -0.62826    0.62826
H     0.62826   -0.62826   -0.62826
H    -0.62826    0.62826   -0.62826
5
Step: 8 --- Kinetic Energy: 0.00000884 J/mol --- Potential Energy: -0.00096417 J/mol --- Total Energy: -0.00095533 J/mol
C     0.00000    0.00000    0.00000
H     0.62803    0.62803    0.62803
H    -0.62803   -0.62803    0.62803
H     0.62803   -0.62803   -0.62803
H    -0.62803    0.62803   -0.62803
5
Step: 9 --- Kinetic Energy: 0.00001121 J/mol --- Potential Energy: -0.00096654 J/mol --- Total Energy: -0.00095533 J/mol
C     0.00000    0.00000    0.00000
H     0.62778    0.62778    0.62778
H    -0.62778   -0.62778    0.62778
H     0.62778   -0.62778   -0.62778
H    -0.62778    0.62778   -0.62778
5
Step: 10 --- Kinetic Energy: 0.00001386 J/mol --- Potential Energy: -0.00096920 J/mol --- Total Energy: -0.00095533 J/mol
C     0.00000    0.00000    0.00000
H     0.62749    0.62749    0.62749
H    -0.62749   -0.62749    0.62749
H     0.62749   -0.62749   -0.62749
H    -0.62749    0.62749   -0.62749
5
Step: 11 --- Kinetic Energy: 0.00001682 J/mol --- Potential Energy: -0.00097215 J/mol --- Total Energy: -0.00095533 J/mol
C     0.00000    0.00000    0.00000
H     0.62717    0.62717    0.62717
H    -0.62717   -0.62717    0.62717
H     0.62717   -0.62717   -0.62717
H    -0.62717    0.62717   -0.62717
5
Step: 12 --- Kinetic Energy: 0.00002006 J/mol --- Potential Energy: -0.00097539 J/mol --- Total Energy: -0.00095533 J/mol
C     0.00000    0.00000    0.00000
H     0.62682    0.62682    0.62682
H    -0.62682   -0.62682    0.62682
H     0.62682   -0.62682   -0.62682
H    -0.62682    0.62682   -0.62682
5
Step: 13 --- Kinetic Energy: 0.00002361 J/mol --- Potential Energy: -0.00097894 J/mol --- Total Energy: -0.00095533 J/mol
C     0.00000    0.00000    0.00000
H     0.62644    0.62644    0.62644
H    -0.62644   -0.62644    0.62644
H     0.62644   -0.62644   -0.62644
H    -0.62644    0.62644   -0.62644
5
Step: 14 --- Kinetic Energy: 0.00002747 J/mol --- Potential Energy: -0.00098280 J/mol --- Total Energy: -0.00095533 J/mol
C     0.00000    0.00000    0.00000
H     0.62603    0.62603    0.62603
H    -0.62603   -0.62603    0.62603
H     0.62603   -0.62603   -0.62603
H    -0.62603    0.62603   -0.62603
5
Step: 15 --- Kinetic Energy: 0.00003164 J/mol --- Potential Energy: -0.00098697 J/mol --- Total Energy: -0.00095533 J/mol
C     0.00000    0.00000    0.00000
H     0.62559    0.62559    0.62559
H    -0.62559   -0.62559    0.62559
H     0.62559   -0.62559   -0.62559
H    -0.62559    0.62559   -0.62559
5
Step: 16 --- Kinetic Energy: 0.00003613 J/mol --- Potential Energy: -0.00099146 J/mol --- Total Energy: -0.00095533 J/mol
C     0.00000    0.00000    0.00000
H     0.62512    0.62512    0.62512
H    -0.62512   -0.62512    0.62512
H     0.62512   -0.62512   -0.62512
H    -0.62512    0.62512   -0.62512
5
Step: 17 --- Kinetic Energy: 0.00004094 J/mol --- Potential Energy: -0.00099627 J/mol --- Total Energy: -0.00095533 J/mol
C     0.00000    0.00000    0.00000
H     0.62461    0.62461    0.62461
H    -0.62461   -0.62461    0.62461
H     0.62461   -0.62461   -0.62461
H    -0.62461    0.62461   -0.62461
5
Step: 18 --- Kinetic Energy: 0.00004608 J/mol --- Potential Energy: -0.00100141 J/mol --- Total Energy: -0.00095533 J/mol
C     0.00000    0.00000    0.00000
H     0.62408    0.62408    0.62408
H    -0.62408   -0.62408    0.62408
H     0.62408   -0.62408   -0.62408
H    -0.62408    0.62408   -0.62408
5
Step: 19 --- Kinetic Energy: 0.00005156 J/mol --- Potential Energy: -0.00100689 J/mol --- Total Energy: -0.00095533 J/mol
C     0.00000    0.00000    0.00000
H     0.62351    0.62351    0.62351
H    -0.62351   -0.62351    0.62351
H     0.62351   -0.62351   -0.62351
H    -0.62351    0.62351   -0.62351
5
Step: 20 --- Kinetic Energy: 0.00005739 J/mol --- Potential Energy: -0.00101272 J/mol --- Total Energy: -0.00095533 J/mol
C     0.00000    0.00000    0.00000
H     0.62291    0.62291    0.62291
H    -0.62291   -0.62291    0.62291
H     0.62291   -0.62291   -0.62291
H    -0.62291    0.62291   -0.62291
5
Step: 21 --- Kinetic Energy: 0.00006358 J/mol --- Potential Energy: -0.00101890 J/mol --- Total Energy: -0.00095533 J/mol
C     0.00000    0.00000    0.00000
H     0.62228    0.62228    0.62228
H    -0.62228   -0.62228    0.62228
H     0.62228   -0.62228   -0.62228
H    -0.62228    0.62228   -0.62228
5
Step: 22 --- Kinetic Energy: 0.00007013 J/mol --- Potential Energy: -0.00102545 J/mol --- Total Energy: -0.00095533 J/mol
C     0.00000    0.00000    0.00000
H     0.62161    0.62161    0.62161
H    -0.62161   -0.62161    0.62161
H     0.62161   -0.62161   -0.62161
H    -0.62161    0.62161   -0.62161
5
Step: 23 --- Kinetic Energy: 0.00007705 J/mol --- Potential Energy: -0.00103238 J/mol --- Total Energy: -0.00095532 J/mol
C     0.00000    0.00000    0.00000
H     0.62092    0.62092    0.62092
H    -0.62092   -0.62092    0.62092
H     0.62092   -0.62092   -0.62092
H    -0.62092    0.62092   -0.62092
5
Step: 24 --- Kinetic Energy: 0.00008436 J/mol --- Potential Energy: -0.00103968 J/mol --- Total Energy: -0.00095532 J/mol
C     0.00000    0.00000    0.00000
H     0.62018    0.62018    0.62018
H    -0.62018   -0.62018    0.62018
H     0.62018   -0.62018   -0.62018
H    -0.62018    0.62018   -0.62018
5
Step: 25 --- Kinetic Energy: 0.00009207 J/mol --- Potential Energy: -0.00104739 J/mol --- Total Energy: -0.00095532 J/mol
C     0.00000    0.00000    0.00000
H     0.61942    0.61942    0.61942
H    -0.61942   -0.61942    0.61942
H     0.61942   -0.61942   -0.61942
H    -0.61942    0.61942   -0.61942
5
Step: 26 --- Kinetic Energy: 0.00010019 J/mol --- Potential Energy: -0.00105551 J/mol --- Total Energy: -0.00095532 J/mol
C     0.00000    0.00000    0.00000
H     0.61862    0.61862    0.61862
H    -0.61862   -0.61862    0.61862
H     0.61862   -0.61862   -0.61862
H    -0.61862    0.61862   -0.61862
5
Step: 27 --- Kinetic Energy: 0.00010873 J/mol --- Potential Energy: -0.00106405 J/mol --- Total Energy: -0.00095532 J/mol
C     0.00000    0.00000    0.00000
H     0.61779    0.61779    0.61779
H    -0.61779   -0.61779    0.61779
H     0.61779   -0.61779   -0.61779
H    -0.61779    0.61779   -0.61779
5
Step: 28 --- Kinetic Energy: 0.00011770 J/mol --- Potential Energy: -0.00107302 J/mol --- Total Energy: -0.00095532 J/mol
C     0.00000    0.00000    0.00000
H     0.61693    0.61693    0.61693
H    -0.61693   -0.61693    0.61693
H     0.61693   -0.61693   -0.61693
H    -0.61693    0.61693   -0.61693
5
Step: 29 --- Kinetic Energy: 0.00012713 J/mol --- Potential Energy: -0.00108245 J/mol --- Total Energy: -0.00095532 J/mol
C     0.00000    0.00000    0.00000
H     0.61603    0.61603    0.61603
H    -0.61603   -0.61603    0.61603
H     0.61603   -0.61603   -0.61603
H    -0.61603    0.61603   -0.61603
5
Step: 30 --- Kinetic Energy: 0.00013703 J/mol --- Potential Energy: -0.00109234 J/mol --- Total Energy: -0.00095532 J/mol
C     0.00000    0.00000    0.00000
H     0.61509    0.61509    0.61509
H    -0.61509   -0.61509    0.61509
H     0.61509   -0.61509   -0.61509
H    -0.61509    0.61509   -0.61509
5
Step: 31 --- Kinetic Energy: 0.00014741 J/mol --- Potential Energy: -0.00110272 J/mol --- Total Energy: -0.00095532 J/mol
C     0.00000    0.00000    0.00000
H     0.61412    0.61412    0.61412
H    -0.61412   -0.61412    0.61412
H     0.61412   -0.61412   -0.61412
H    -0.61412    0.61412   -0.61412
5
Step: 32 --- Kinetic Energy: 0.00015829 J/mol --- Potential Energy: -0.00111361 J/mol --- Total Energy: -0.00095532 J/mol
C     0.00000    0.00000    0.00000
H     0.61312    0.61312    0.61312
H    -0.61312   -0.61312    0.61312
H     0.61312   -0.61312   -0.61312
H    -0.61312    0.61312   -0.61312
5
Step: 33 --- Kinetic Energy: 0.00016970 J/mol --- Potential Energy: -0.00112501 J/mol --- Total Energy: -0.00095531 J/mol
C     0.00000    0.00000    0.00000
H     0.61208    0.61208    0.61208
H    -0.61208   -0.61208    0.61208
H     0.61208   -0.61208   -0.61208
H    -0.61208    0.61208   -0.61208
5
Step: 34 --- Kinetic Energy: 0.00018164 J/mol --- Potential Energy: -0.00113696 J/mol --- Total Energy: -0.00095531 J/mol
C     0.00000    0.00000    0.00000
H     0.61100    0.61100    0.61100
H    -0.61100   -0.61100    0.61100
H     0.61100   -0.61100   -0.61100
H    -0.61100    0.61100   -0.61100
5
Step: 35 --- Kinetic Energy: 0.00019416 J/mol --- Potential Energy: -0.00114947 J/mol --- Total Energy: -0.00095531 J/mol
C     0.00000    0.00000    0.00000
H     0.60989    0.60989    0.60989
H    -0.60989   -0.60989    0.60989
H     0.60989   -0.60989   -0.60989
H    -0.60989    0.60989   -0.60989
5
Step: 36 --- Kinetic Energy: 0.00020726 J/mol --- Potential Energy: -0.00116257 J/mol --- Total Energy: -0.00095531 J/mol
C     0.00000    0.00000    0.00000
H     0.60873    0.60873    0.60873
H    -0.60873   -0.60873    0.60873
H     0.60873   -0.60873   -0.60873
H    -0.60873    0.60873   -0.60873
5
Step: 37 --- Kinetic Energy: 0.00022097 J/mol --- Potential Energy: -0.00117628 J/mol --- Total Energy: -0.00095531 J/mol
C     0.00000    0.00000    0.00000
H     0.60754    0.60754    0.60754
H    -0.60754   -0.60754    0.60754
H     0.60754   -0.60754   -0.60754
H    -0.60754    0.60754   -0.60754
5
Step: 38 --- Kinetic Energy: 0.00023533 J/mol --- Potential Energy: -0.00119063 J/mol --- Total Energy: -0.00095531 J/mol
C     0.00000    0.00000    0.00000
H     0.60632    0.60632    0.60632
H    -0.60632   -0.60632    0.60632
H     0.60632   -0.60632   -0.60632
H    -0.60632    0.60632   -0.60632
5
Step: 39 --- Kinetic Energy: 0.00025035 J/mol --- Potential Energy: -0.00120566 J/mol --- Total Energy: -0.00095530 J/mol
C     0.00000    0.00000    0.00000
H     0.60505    0.60505    0.60505
H    -0.60505   -0.60505    0.60505
H     0.60505   -0.60505   -0.60505
H    -0.60505    0.60505   -0.60505
5
Step: 40 --- Kinetic Energy: 0.00026608 J/mol --- Potential Energy: -0.00122138 J/mol --- Total Energy: -0.00095530 J/mol
C     0.00000    0.00000    0.00000
H     0.60374    0.60374    0.60374
H    -0.60374   -0.60374    0.60374
H     0.60374   -0.60374   -0.60374
H    -0.60374    0.60374   -0.60374
5
Step: 41 --- Kinetic Energy: 0.00028254 J/mol --- Potential Energy: -0.00123784 J/mol --- Total Energy: -0.00095530 J/mol
C     0.00000    0.00000    0.00000
H     0.60240    0.60240    0.60240
H    -0.60240   -0.60240    0.60240
H     0.60240   -0.60240   -0.60240
H    -0.60240    0.60240   -0.60240
5
Step: 42 --- Kinetic Energy: 0.00029977 J/mol --- Potential Energy: -0.00125506 J/mol --- Total Energy: -0.00095530 J/mol
C     0.00000    0.00000    0.00000
H     0.60101    0.60101    0.60101
H    -0.60101   -0.60101    0.60101
H     0.60101   -0.60101   -0.60101
H    -0.60101    0.60101   -0.60101
5
Step: 43 --- Kinetic Energy: 0.00031780 J/mol --- Potential Energy: -0.00127310 J/mol --- Total Energy: -0.00095529 J/mol
C     0.00000    0.00000    0.00000
H     0.59958    0.59958    0.59958
H    -0.59958   -0.59958    0.59958
H     0.59958   -0.59958   -0.59958
H    -0.59958    0.59958   -0.59958
5
Step: 44 --- Kinetic Energy: 0.00033669 J/mol --- Potential Energy: -0.00129198 J/mol --- Total Energy: -0.00095529 J/mol
C     0.00000    0.00000    0.00000
H     0.59811    0.59811    0.59811
H    -0.59811   -0.59811    0.59811
H     0.59811   -0.59811   -0.59811
H    -0.59811    0.59811   -0.59811
5
Step: 45 --- Kinetic Energy: 0.00035646 J/mol --- Potential Energy: -0.00131175 J/mol --- Total Energy: -0.00095529 J/mol
C     0.00000    0.00000    0.00000
H     0.59660    0.59660    0.59660
H    -0.59660   -0.59660    0.59660
H     0.59660   -0.59660   -0.59660
H    -0.59660    0.59660   -0.59660
5
Step: 46 --- Kinetic Energy: 0.00037717 J/mol --- Potential Energy: -0.00133246 J/mol --- Total Energy: -0.00095529 J/mol
C     0.00000    0.00000    0.00000
H     0.59504    0.59504    0.59504
H    -0.59504   -0.59504    0.59504
H     0.59504   -0.59504   -0.59504
H    -0.59504    0.59504   -0.59504
5
Step: 47 --- Kinetic Energy: 0.00039888 J/mol --- Potential Energy: -0.00135416 J/mol --- Total Energy: -0.00095528 J/mol
C     0.00000    0.00000    0.00000
H     0.59344    0.59344    0.59344
H    -0.59344   -0.59344    0.59344
H     0.59344   -0.59344   -0.59344
H    -0.59344    0.59344   -0.59344
5
Step: 48 --- Kinetic Energy: 0.00042162 J/mol --- Potential Energy: -0.00137690 J/mol --- Total Energy: -0.00095528 J/mol
C     0.00000    0.00000    0.00000
H     0.59179    0.59179    0.59179
H    -0.59179   -0.59179    0.59179
H     0.59179   -0.59179   -0.59179
H    -0.59179    0.59179   -0.59179
5
Step: 49 --- Kinetic Energy: 0.00044547 J/mol --- Potential Energy: -0.00140074 J/mol --- Total Energy: -0.00095527 J/mol
C     0.00000    0.00000    0.00000
H     0.59010    0.59010    0.59010
H    -0.59010   -0.59010    0.59010
H     0.59010   -0.59010   -0.59010
H    -0.59010    0.59010   -0.59010
5
Step: 50 --- Kinetic Energy: 0.00047049 J/mol --- Potential Energy: -0.00142575 J/mol --- Total Energy: -0.00095527 J/mol
C     0.00000    0.00000    0.00000
H     0.58836    0.58836    0.58836
H    -0.58836   -0.58836    0.58836
H     0.58836   -0.58836   -0.58836
H    -0.58836    0.58836   -0.58836
5
Step: 51 --- Kinetic Energy: 0.00049673 J/mol --- Potential Energy: -0.00145200 J/mol --- Total Energy: -0.00095526 J/mol
C     0.00000    0.00000    0.00000
H     0.58657    0.58657    0.58657
H    -0.58657   -0.58657    0.58657
H     0.58657   -0.58657   -0.58657
H    -0.58657    0.58657   -0.58657
5
Step: 52 --- Kinetic Energy: 0.00052429 J/mol --- Potential Energy: -0.00147955 J/mol --- Total Energy: -0.00095526 J/mol
C     0.00000    0.00000    0.00000
H     0.58473    0.58473    0.58473
H    -0.58473   -0.58473    0.58473
H     0.58473   -0.58473   -0.58473
H    -0.58473    0.58473   -0.58473
5
Step: 53 --- Kinetic Energy: 0.00055324 J/mol --- Potential Energy: -0.00150849 J/mol --- Total Energy: -0.00095525 J/mol
C     0.00000    0.00000    0.00000
H     0.58284    0.58284    0.58284
H    -0.58284   -0.58284    0.58284
H     0.58284   -0.58284   -0.58284
H    -0.58284    0.58284   -0.58284
5
Step: 54 --- Kinetic Energy: 0.00058367 J/mol --- Potential Energy: -0.00153891 J/mol --- Total Energy: -0.00095525 J/mol
C     0.00000    0.00000    0.00000
H     0.58091    0.58091    0.58091
H    -0.58091   -0.58091    0.58091
H     0.58091   -0.58091   -0.58091
H    -0.58091    0.58091   -0.58091
5
Step: 55 --- Kinetic Energy: 0.00061566 J/mol --- Potential Energy: -0.00157090 J/mol --- Total Energy: -0.00095524 J/mol
C     0.00000    0.00000    0.00000
H     0.57892    0.57892    0.57892
H    -0.57892   -0.57892    0.57892
H     0.57892   -0.57892   -0.57892
H    -0.57892    0.57892   -0.57892
5
Step: 56 --- Kinetic Energy: 0.00064933 J/mol --- Potential Energy: -0.00160456 J/mol --- Total Energy: -0.00095523 J/mol
C     0.00000    0.00000    0.00000
H     0.57687    0.57687    0.57687
H    -0.57687   -0.57687    0.57687
H     0.57687   -0.57687   -0.57687
H    -0.57687    0.57687   -0.57687
5
Step: 57 --- Kinetic Energy: 0.00068479 J/mol --- Potential Energy: -0.00164001 J/mol --- Total Energy: -0.00095522 J/mol
C     0.00000    0.00000    0.00000
H     0.57477    0.57477    0.57477
H    -0.57477   -0.57477    0.57477
H     0.57477   -0.57477   -0.57477
H    -0.57477    0.57477   -0.57477
5
Step: 58 --- Kinetic Energy: 0.00072215 J/mol --- Potential Energy: -0.00167737 J/mol --- Total Energy: -0.00095522 J/mol
C     0.00000    0.00000    0.00000
H     0.57261    0.57261    0.57261
H    -0.57261   -0.57261    0.57261
H     0.57261   -0.57261   -0.57261
H    -0.57261    0.57261   -0.57261
5
Step: 59 --- Kinetic Energy: 0.00076156 J/mol --- Potential Energy: -0.00171677 J/mol --- Total Energy: -0.00095521 J/mol
C     0.00000    0.00000    0.00000
H     0.57040    0.57040    0.57040
H    -0.57040   -0.57040    0.57040
H     0.57040   -0.57040   -0.57040
H    -0.57040    0.57040   -0.57040
5
Step: 60 --- Kinetic Energy: 0.00080316 J/mol --- Potential Energy: -0.00175835 J/mol --- Total Energy: -0.00095519 J/mol
C     0.00000    0.00000    0.00000
H     0.56813    0.56813    0.56813
H    -0.56813   -0.56813    0.56813
H     0.56813   -0.56813   -0.56813
H    -0.56813    0.56813   -0.56813
5
Step: 61 --- Kinetic Energy: 0.00084710 J/mol --- Potential Energy: -0.00180229 J/mol --- Total Energy: -0.00095518 J/mol
C     0.00000    0.00000    0.00000
H     0.56579    0.56579    0.56579
H    -0.56579   -0.56579    0.56579
H     0.56579   -0.56579   -0.56579
H    -0.56579    0.56579   -0.56579
5
Step: 62 --- Kinetic Energy: 0.00089358 J/mol --- Potential Energy: -0.00184875 J/mol --- Total Energy: -0.00095517 J/mol
C     0.00000    0.00000    0.00000
H     0.56339    0.56339    0.56339
H    -0.56339   -0.56339    0.56339
H     0.56339   -0.56339   -0.56339
H    -0.56339    0.56339   -0.56339
5
Step: 63 --- Kinetic Energy: 0.00094277 J/mol --- Potential Energy: -0.00189792 J/mol --- Total Energy: -0.00095516 J/mol
C     0.00000    0.00000    0.00000
H     0.56093    0.56093    0.56093
H    -0.56093   -0.56093    0.56093
H     0.56093   -0.56093   -0.56093
H    -0.56093    0.56093   -0.56093
5
Step: 64 --- Kinetic Energy: 0.00099490 J/mol --- Potential Energy: -0.00195004 J/mol --- Total Energy: -0.00095514 J/mol
C     0.00000    0.00000    0.00000
H     0.55840    0.55840    0.55840
H    -0.55840   -0.55840    0.55840
H     0.55840   -0.55840   -0.55840
H    -0.55840    0.55840   -0.55840
5
Step: 65 --- Kinetic Energy: 0.00105020 J/mol --- Potential Energy: -0.00200532 J/mol --- Total Energy: -0.00095512 J/mol
C     0.00000    0.00000    0.00000
H     0.55580    0.55580    0.55580
H    -0.55580   -0.55580    0.55580
H     0.55580   -0.55580   -0.55580
H    -0.55580    0.55580   -0.55580
5
Step: 66 --- Kinetic Energy: 0.00110893 J/mol --- Potential Energy: -0.00206403 J/mol --- Total Energy: -0.00095510 J/mol
C     0.00000    0.00000    0.00000
H     0.55313    0.55313    0.55313
H    -0.55313   -0.55313    0.55313
H     0.55313   -0.55313   -0.55313
H    -0.55313    0.55313   -0.55313
5
Step: 67 --- Kinetic Energy: 0.00117138 J/mol --- Potential Energy: -0.00212646 J/mol --- Total Energy: -0.00095508 J/mol
C     0.00000    0.00000    0.00000
H     0.55038    0.55038    0.55038
H    -0.55038   -0.55038    0.55038
H     0.55038   -0.55038   -0.55038
H    -0.55038    0.55038   -0.55038
5
Step: 68 --- Kinetic Energy: 0.00123789 J/mol --- Potential Energy: -0.00219294 J/mol --- Total Energy: -0.00095506 J/mol
C     0.00000    0.00000    0.00000
H     0.54756    0.54756    0.54756
H    -0.54756   -0.54756    0.54756
H     0.54756   -0.54756   -0.54756
H    -0.54756    0.54756   -0.54756
5
Step: 69 --- Kinetic Energy: 0.00130881 J/mol --- Potential Energy: -0.00226383 J/mol --- Total Energy: -0.00095503 J/mol
C     0.00000    0.00000    0.00000
H     0.54466    0.54466    0.54466
H    -0.54466   -0.54466    0.54466
H     0.54466   -0.54466   -0.54466
H    -0.54466    0.54466   -0.54466
5
Step: 70 --- Kinetic Energy: 0.00138454 J/mol --- Potential Energy: -0.00233953 J/mol --- Total Energy: -0.00095500 J/mol
C     0.00000    0.00000    0.00000
H     0.54168    0.54168    0.54168
H    -0.54168   -0.54168    0.54168
H     0.54168   -0.54168   -0.54168
H    -0.54168    0.54168   -0.54168
5
Step: 71 --- Kinetic Energy: 0.00146554 J/mol --- Potential Energy: -0.00242050 J/mol --- Total Energy: -0.00095496 J/mol
C     0.00000    0.00000    0.00000
H     0.53861    0.53861    0.53861
H    -0.53861   -0.53861    0.53861
H     0.53861   -0.53861   -0.53861
H    -0.53861    0.53861   -0.53861
5
Step: 72 --- Kinetic Energy: 0.00155232 J/mol --- Potential Energy: -0.00250725 J/mol --- Total Energy: -0.00095492 J/mol
C     0.00000    0.00000    0.00000
H     0.53545    0.53545    0.53545
H    -0.53545   -0.53545    0.53545
H     0.53545   -0.53545   -0.53545
H    -0.53545    0.53545   -0.53545
5
Step: 73 --- Kinetic Energy: 0.00164547 J/mol --- Potential Energy: -0.00260034 J/mol --- Total Energy: -0.00095488 J/mol
C     0.00000    0.00000    0.00000
H     0.53220    0.53220    0.53220
H    -0.53220   -0.53220    0.53220
H     0.53220   -0.53220   -0.53220
H    -0.53220    0.53220   -0.53220
5
Step: 74 --- Kinetic Energy: 0.00174562 J/mol --- Potential Energy: -0.00270045 J/mol --- Total Energy: -0.00095483 J/mol
C     0.00000    0.00000    0.00000
H     0.52885    0.52885    0.52885
H    -0.52885   -0.52885    0.52885
H     0.52885   -0.52885   -0.52885
H    -0.52885    0.52885   -0.52885
5
Step: 75 --- Kinetic Energy: 0.00185353 J/mol --- Potential Energy: -0.00280830 J/mol --- Total Energy: -0.00095477 J/mol
C     0.00000    0.00000    0.00000
H     0.52540    0.52540    0.52540
H    -0.52540   -0.52540    0.52540
H     0.52540   -0.52540   -0.52540
H    -0.52540    0.52540   -0.52540
5
Step: 76 --- Kinetic Energy: 0.00197005 J/mol --- Potential Energy: -0.00292475 J/mol --- Total Energy: -0.00095470 J/mol
C     0.00000    0.00000    0.00000
H     0.52185    0.52185    0.52185
H    -0.52185   -0.52185    0.52185
H     0.52185   -0.52185   -0.52185
H    -0.52185    0.52185   -0.52185
5
Step: 77 --- Kinetic Energy: 0.00209615 J/mol --- Potential Energy: -0.00305077 J/mol --- Total Energy: -0.00095462 J/mol
C     0.00000    0.00000    0.00000
H     0.51818    0.51818    0.51818
H    -0.51818   -0.51818    0.51818
H     0.51818   -0.51818   -0.51818
H    -0.51818    0.51818   -0.51818
5
Step: 78 --- Kinetic Energy: 0.00223294 J/mol --- Potential Energy: -0.00318748 J/mol --- Total Energy: -0.00095454 J/mol
C     0.00000    0.00000    0.00000
H     0.51440    0.51440    0.51440
H    -0.51440   -0.51440    0.51440
H     0.51440   -0.51440   -0.51440
H    -0.51440    0.51440   -0.51440
5
Step: 79 --- Kinetic Energy: 0.00238173 J/mol --- Potential Energy: -0.00333616 J/mol --- Total Energy: -0.00095443 J/mol
C     0.00000    0.00000    0.00000
H     0.51050    0.51050    0.51050
H    -0.51050   -0.51050    0.51050
H     0.51050   -0.51050   -0.51050
H    -0.51050    0.51050   -0.51050
5
Step: 80 --- Kinetic Energy: 0.00254401 J/mol --- Potential Energy: -0.00349832 J/mol --- Total Energy: -0.00095431 J/mol
C     0.00000    0.00000    0.00000
H     0.50646    0.50646    0.50646
H    -0.50646   -0.50646    0.50646
H     0.50646   -0.50646   -0.50646
H    -0.50646    0.50646   -0.50646
5
Step: 81 --- Kinetic Energy: 0.00272154 J/mol --- Potential Energy: -0.00367571 J/mol --- Total Energy: -0.00095417 J/mol
C     0.00000    0.00000    0.00000
H     0.50229    0.50229    0.50229
H    -0.50229   -0.50229    0.50229
H     0.50229   -0.50229   -0.50229
H    -0.50229    0.50229   -0.50229
5
Step: 82 --- Kinetic Energy: 0.00291637 J/mol --- Potential Energy: -0.00387037 J/mol --- Total Energy: -0.00095400 J/mol
C     0.00000    0.00000    0.00000
H     0.49798    0.49798    0.49798
H    -0.49798   -0.49798    0.49798
H     0.49798   -0.49798   -0.49798
H    -0.49798    0.49798   -0.49798
5
Step: 83 --- Kinetic Energy: 0.00313094 J/mol --- Potential Energy: -0.00408475 J/mol --- Total Energy: -0.00095380 J/mol
C     0.00000    0.00000    0.00000
H     0.49351    0.49351    0.49351
H    -0.49351   -0.49351    0.49351
H     0.49351   -0.49351   -0.49351
H    -0.49351    0.49351   -0.49351
5
Step: 84 --- Kinetic Energy: 0.00336814 J/mol --- Potential Energy: -0.00432170 J/mol --- Total Energy: -0.00095356 J/mol
C     0.00000    0.00000    0.00000
H     0.48888    0.48888    0.48888
H    -0.48888   -0.48888    0.48888
H     0.48888   -0.48888   -0.48888
H    -0.48888    0.48888   -0.48888
5
Step: 85 --- Kinetic Energy: 0.00363142 J/mol --- Potential Energy: -0.00458469 J/mol --- Total Energy: -0.00095328 J/mol
C     0.00000    0.00000    0.00000
H     0.48407    0.48407    0.48407
H    -0.48407   -0.48407    0.48407
H     0.48407   -0.48407   -0.48407
H    -0.48407    0.48407   -0.48407
5
Step: 86 --- Kinetic Energy: 0.00392494 J/mol --- Potential Energy: -0.00487786 J/mol --- Total Energy: -0.00095293 J/mol
C     0.00000    0.00000    0.00000
H     0.47908    0.47908    0.47908
H    -0.47908   -0.47908    0.47908
H     0.47908   -0.47908   -0.47908
H    -0.47908    0.47908   -0.47908
5
Step: 87 --- Kinetic Energy: 0.00425376 J/mol --- Potential Energy: -0.00520625 J/mol --- Total Energy: -0.00095250 J/mol
C     0.00000    0.00000    0.00000
H     0.47388    0.47388    0.47388
H    -0.47388   -0.47388    0.47388
H     0.47388   -0.47388   -0.47388
H    -0.47388    0.47388   -0.47388
5
Step: 88 --- Kinetic Energy: 0.00462409 J/mol --- Potential Energy: -0.00557605 J/mol --- Total Energy: -0.00095196 J/mol
C     0.00000    0.00000    0.00000
H     0.46847    0.46847    0.46847
H    -0.46847   -0.46847    0.46847
H     0.46847   -0.46847   -0.46847
H    -0.46847    0.46847   -0.46847
5
Step: 89 --- Kinetic Energy: 0.00504359 J/mol --- Potential Energy: -0.00599489 J/mol --- Total Energy: -0.00095130 J/mol
C     0.00000    0.00000    0.00000
H     0.46282    0.46282    0.46282
H    -0.46282   -0.46282    0.46282
H     0.46282   -0.46282   -0.46282
H    -0.46282    0.46282   -0.46282
5
Step: 90 --- Kinetic Energy: 0.00552187 J/mol --- Potential Energy: -0.00647233 J/mol --- Total Energy: -0.00095046 J/mol
C     0.00000    0.00000    0.00000
H     0.45692    0.45692    0.45692
H    -0.45692   -0.45692    0.45692
H     0.45692   -0.45692   -0.45692
H    -0.45692    0.45692   -0.45692
5
Step: 91 --- Kinetic Energy: 0.00607108 J/mol --- Potential Energy: -0.00702046 J/mol --- Total Energy: -0.00094938 J/mol
C     0.00000    0.00000    0.00000
H     0.45073    0.45073    0.45073
H    -0.45073   -0.45073    0.45073
H     0.45073   -0.45073   -0.45073
H    -0.45073    0.45073   -0.45073
5
Step: 92 --- Kinetic Energy: 0.00670676 J/mol --- Potential Energy: -0.00765474 J/mol --- Total Energy: -0.00094798 J/mol
C     0.00000    0.00000    0.00000
H     0.44424    0.44424    0.44424
H    -0.44424   -0.44424    0.44424
H     0.44424   -0.44424   -0.44424
H    -0.44424    0.44424   -0.44424
5
Step: 93 --- Kinetic Energy: 0.00744916 J/mol --- Potential Energy: -0.00839530 J/mol --- Total Energy: -0.00094613 J/mol
C     0.00000    0.00000    0.00000
H     0.43741    0.43741    0.43741
H    -0.43741   -0.43741    0.43741
H     0.43741   -0.43741   -0.43741
H    -0.43741    0.43741   -0.43741
5
Step: 94 --- Kinetic Energy: 0.00832503 J/mol --- Potential Energy: -0.00926868 J/mol --- Total Energy: -0.00094365 J/mol
C     0.00000    0.00000    0.00000
H     0.43021    0.43021    0.43021
H    -0.43021   -0.43021    0.43021
H     0.43021   -0.43021   -0.43021
H    -0.43021    0.43021   -0.43021
5
Step: 95 --- Kinetic Energy: 0.00937036 J/mol --- Potential Energy: -0.01031060 J/mol --- Total Energy: -0.00094024 J/mol
C     0.00000    0.00000    0.00000
H     0.42257    0.42257    0.42257
H    -0.42257   -0.42257    0.42257
H     0.42257   -0.42257   -0.42257
H    -0.42257    0.42257   -0.42257
5
Step: 96 --- Kinetic Energy: 0.01063461 J/mol --- Potential Energy: -0.01157007 J/mol --- Total Energy: -0.00093546 J/mol
C     0.00000    0.00000    0.00000
H     0.41446    0.41446    0.41446
H    -0.41446   -0.41446    0.41446
H     0.41446   -0.41446   -0.41446
H    -0.41446    0.41446   -0.41446
5
Step: 97 --- Kinetic Energy: 0.01218741 J/mol --- Potential Energy: -0.01311597 J/mol --- Total Energy: -0.00092856 J/mol
C     0.00000    0.00000    0.00000
H     0.40580    0.40580    0.40580
H    -0.40580   -0.40580    0.40580
H     0.40580   -0.40580   -0.40580
H    -0.40580    0.40580   -0.40580
5
Step: 98 --- Kinetic Energy: 0.01412951 J/mol --- Potential Energy: -0.01504780 J/mol --- Total Energy: -0.00091829 J/mol
C     0.00000    0.00000    0.00000
H     0.39651    0.39651    0.39651