3
Step: 0 --- Kinetic Energy: 0.00000000 J/mol --- Potential Energy: -0.00098640 J/mol --- Total Energy: -0.00098640 J/mol
O     0.00000    0.00000    0.00000
H     0.75800    0.58600    0.00000
H    -0.75800    0.58600    0.00000
3
Step: 1 --- Kinetic Energy: 0.00000039 J/mol --- Potential Energy: -0.00098679 J/mol --- Total Energy: -0.00098640 J/mol
O     0.00000    0.00000    0.00000
H     0.75795    0.58596    0.00000
H    -0.75795    0.58596    0.00000
3
Step: 2 --- Kinetic Energy: 0.00000158 J/mol --- Potential Energy: -0.00098798 J/mol --- Total Energy: -0.00098640 J/mol
O     0.00000    0.00002    0.00000
H     0.75780    0.58585    0.00000
H    -0.75780    0.58585    0.00000
3
Step: 3 --- Kinetic Energy: 0.00000356 J/mol --- Potential Energy: -0.00098996 J/mol --- Total Energy: -0.00098640 J/mol
O     0.00000    0.00004    0.00000
H     0.75756    0.58567    0.00000
H    -0.75756    0.58567    0.00000
3
Step: 4 --- Kinetic Energy: 0.00000634 J/mol --- Potential Energy: -0.00099274 J/mol --- Total Energy: -0.00098640 J/mol
O     0.00000    0.00007    0.00000
H     0.75721    0.58542    0.00000
H    -0.75721    0.58542    0.00000
3
Step: 5 --- Kinetic Energy: 0.00000993 J/mol --- Potential Energy: -0.00099633 J/mol --- Total Energy: -0.00098640 J/mol
O     0.00000    0.00011    0.00000
H     0.75677    0.58509    0.00000
H    -0.75677    0.58509    0.00000
3
Step: 6 --- Kinetic Energy: 0.00001435 J/mol --- Potential Energy: -0.00100075 J/mol --- Total Energy: -0.00098640 J/mol
O     0.00000    0.00016    0.00000
H     0.75622    0.58469    0.00000
H    -0.75622    0.58469    0.00000
3
Step: 7 --- Kinetic Energy: 0.00001961 J/mol --- Potential Energy: -0.00100601 J/mol --- Total Energy: -0.00098640 J/mol
O     0.00000    0.00022    0.00000
H     0.75558    0.58422    0.00000
H    -0.75558    0.58422    0.00000
3
Step: 8 --- Kinetic Energy: 0.00002574 J/mol --- Potential Energy: -0.00101213 J/mol --- Total Energy: -0.00098639 J/mol
O     0.00000    0.00029    0.00000
H     0.75483    0.58367    0.00000
H    -0.75483    0.58367    0.00000
3
Step: 9 --- Kinetic Energy: 0.00003275 J/mol --- Potential Energy: -0.00101914 J/mol --- Total Energy: -0.00098639 J/mol
O     0.00000    0.00037    0.00000
H     0.75398    0.58304    0.00000
H    -0.75398    0.58304    0.00000
3
Step: 10 --- Kinetic Energy: 0.00004068 J/mol --- Potential Energy: -0.00102707 J/mol --- Total Energy: -0.00098639 J/mol
O     0.00000    0.00046    0.00000
H     0.75303    0.58235    0.00000
H    -0.75303    0.58235    0.00000
3
Step: 11 --- Kinetic Energy: 0.00004955 J/mol --- Potential Energy: -0.00103594 J/mol --- Total Energy: -0.00098639 J/mol
O     0.00000    0.00056    0.00000
H     0.75198    0.58157    0.00000
H    -0.75198    0.58157    0.00000
3
Step: 12 --- Kinetic Energy: 0.00005941 J/mol --- Potential Energy: -0.00104579 J/mol --- Total Energy: -0.00098639 J/mol
O     0.00000    0.00067    0.00000
H     0.75082    0.58072    0.00000
H    -0.75082    0.58072    0.00000
3
Step: 13 --- Kinetic Energy: 0.00007029 J/mol --- Potential Energy: -0.00105667 J/mol --- Total Energy: -0.00098638 J/mol
O     0.00000    0.00078    0.00000
H     0.74956    0.57979    0.00000
H    -0.74956    0.57979    0.00000
3
Step: 14 --- Kinetic Energy: 0.00008224 J/mol --- Potential Energy: -0.00106862 J/mol --- Total Energy: -0.00098638 J/mol
O     0.00000    0.00091    0.00000
H     0.74819    0.57878    0.00000
H    -0.74819    0.57878    0.00000
3
Step: 15 --- Kinetic Energy: 0.00009531 J/mol --- Potential Energy: -0.00108168 J/mol --- Total Energy: -0.00098638 J/mol
O     0.00000    0.00105    0.00000
H     0.74671    0.57770    0.00000
H    -0.74671    0.57770    0.00000
3
Step: 16 --- Kinetic Energy: 0.00010956 J/mol --- Potential Energy: -0.00109593 J/mol --- Total Energy: -0.00098637 J/mol
O     0.00000    0.00119    0.00000
H     0.74512    0.57653    0.00000
H    -0.74512    0.57653    0.00000
3
Step: 17 --- Kinetic Energy: 0.00012505 J/mol --- Potential Energy: -0.00111142 J/mol --- Total Energy: -0.00098637 J/mol
O     0.00000    0.00135    0.00000
H     0.74342    0.57528    0.00000
H    -0.74342    0.57528    0.00000
3
Step: 18 --- Kinetic Energy: 0.00014186 J/mol --- Potential Energy: -0.00112822 J/mol --- Total Energy: -0.00098636 J/mol
O     0.00000    0.00152    0.00000
H     0.74161    0.57395    0.00000
H    -0.74161    0.57395    0.00000
3
Step: 19 --- Kinetic Energy: 0.00016006 J/mol --- Potential Energy: -0.00114641 J/mol --- Total Energy: -0.00098636 J/mol
O     0.00000    0.00170    0.00000
H     0.73968    0.57253    0.00000
H    -0.73968    0.57253    0.00000
3
Step: 20 --- Kinetic Energy: 0.00017974 J/mol --- Potential Energy: -0.00116609 J/mol --- Total Energy: -0.00098635 J/mol
O     0.00000    0.00189    0.00000
H     0.73763    0.57102    0.00000
H    -0.73763    0.57102    0.00000
3
Step: 21 --- Kinetic Energy: 0.00020101 J/mol --- Potential Energy: -0.00118735 J/mol --- Total Energy: -0.00098634 J/mol
O     0.00000    0.00209    0.00000
H     0.73547    0.56943    0.00000
H    -0.73547    0.56943    0.00000
3
Step: 22 --- Kinetic Energy: 0.00022398 J/mol --- Potential Energy: -0.00121031 J/mol --- Total Energy: -0.00098633 J/mol
O     0.00000    0.00230    0.00000
H     0.73318    0.56775    0.00000
H    -0.73318    0.56775    0.00000
3
Step: 23 --- Kinetic Energy: 0.00024876 J/mol --- Potential Energy: -0.00123508 J/mol --- Total Energy: -0.00098633 J/mol
O     0.00000    0.00252    0.00000
H     0.73077    0.56598    0.00000
H    -0.73077    0.56598    0.00000
3
Step: 24 --- Kinetic Energy: 0.00027550 J/mol --- Potential Energy: -0.00126181 J/mol --- Total Energy: -0.00098632 J/mol
O     0.00000    0.00276    0.00000
H     0.72823    0.56411    0.00000
H    -0.72823    0.56411    0.00000
3
Step: 25 --- Kinetic Energy: 0.00030435 J/mol --- Potential Energy: -0.00129065 J/mol --- Total Energy: -0.00098630 J/mol
O     0.00000    0.00301    0.00000
H     0.72555    0.56215    0.00000
H    -0.72555    0.56215    0.00000
3
Step: 26 --- Kinetic Energy: 0.00033549 J/mol --- Potential Energy: -0.00132178 J/mol --- Total Energy: -0.00098629 J/mol
O     0.00000    0.00327    0.00000
H     0.72274    0.56008    0.00000
H    -0.72274    0.56008    0.00000
3
Step: 27 --- Kinetic Energy: 0.00036911 J/mol --- Potential Energy: -0.00135539 J/mol --- Total Energy: -0.00098628 J/mol
O     0.00000    0.00354    0.00000
H     0.71980    0.55792    0.00000
H    -0.71980    0.55792    0.00000
3
Step: 28 --- Kinetic Energy: 0.00040544 J/mol --- Potential Energy: -0.00139170 J/mol --- Total Energy: -0.00098626 J/mol
O     0.00000    0.00382    0.00000
H     0.71671    0.55565    0.00000
H    -0.71671    0.55565    0.00000
3
Step: 29 --- Kinetic Energy: 0.00044472 J/mol --- Potential Energy: -0.00143096 J/mol --- Total Energy: -0.00098624 J/mol
O     0.00000    0.00412    0.00000
H     0.71347    0.55327    0.00000
H    -0.71347    0.55327    0.00000
3
Step: 30 --- Kinetic Energy: 0.00048723 J/mol --- Potential Energy: -0.00147346 J/mol --- Total Energy: -0.00098622 J/mol
O     0.00000    0.00444    0.00000
H     0.71008    0.55078    0.00000
H    -0.71008    0.55078    0.00000
3
Step: 31 --- Kinetic Energy: 0.00053331 J/mol --- Potential Energy: -0.00151951 J/mol --- Total Energy: -0.00098620 J/mol
O     0.00000    0.00477    0.00000
H     0.70653    0.54817    0.00000
H    -0.70653    0.54817    0.00000
3
Step: 32 --- Kinetic Energy: 0.00058331 J/mol --- Potential Energy: -0.00156948 J/mol --- Total Energy: -0.00098617 J/mol
O     0.00000    0.00511    0.00000
H     0.70282    0.54545    0.00000
H    -0.70282    0.54545    0.00000
3
Step: 33 --- Kinetic Energy: 0.00063766 J/mol --- Potential Energy: -0.00162380 J/mol --- Total Energy: -0.00098614 J/mol
O     0.00000    0.00547    0.00000
H     0.69894    0.54260    0.00000
H    -0.69894    0.54260    0.00000
3
Step: 34 --- Kinetic Energy: 0.00069683 J/mol --- Potential Energy: -0.00168293 J/mol --- Total Energy: -0.00098610 J/mol
O     0.00000    0.00584    0.00000
H     0.69489    0.53962    0.00000
H    -0.69489    0.53962    0.00000
3
Step: 35 --- Kinetic Energy: 0.00076139 J/mol --- Potential Energy: -0.00174744 J/mol --- Total Energy: -0.00098606 J/mol
O     0.00000    0.00624    0.00000
H     0.69065    0.53651    0.00000
H    -0.69065    0.53651    0.00000
3
Step: 36 --- Kinetic Energy: 0.00083197 J/mol --- Potential Energy: -0.00181798 J/mol --- Total Energy: -0.00098601 J/mol
O     0.00000    0.00665    0.00000
H     0.68621    0.53326    0.00000
H    -0.68621    0.53326    0.00000
3
Step: 37 --- Kinetic Energy: 0.00090933 J/mol --- Potential Energy: -0.00189528 J/mol --- Total Energy: -0.00098595 J/mol
O     0.00000    0.00707    0.00000
H     0.68158    0.52986    0.00000
H    -0.68158    0.52986    0.00000
3
Step: 38 --- Kinetic Energy: 0.00099434 J/mol --- Potential Energy: -0.00198022 J/mol --- Total Energy: -0.00098588 J/mol
O     0.00000    0.00752    0.00000
H     0.67673    0.52630    0.00000
H    -0.67673    0.52630    0.00000
3
Step: 39 --- Kinetic Energy: 0.00108804 J/mol --- Potential Energy: -0.00207384 J/mol --- Total Energy: -0.00098580 J/mol
O     0.00000    0.00799    0.00000
H     0.67166    0.52259    0.00000
H    -0.67166    0.52259    0.00000
3
Step: 40 --- Kinetic Energy: 0.00119165 J/mol --- Potential Energy: -0.00217735 J/mol --- Total Energy: -0.00098570 J/mol
O     0.00000    0.00848    0.00000
H     0.66636    0.51870    0.00000
H    -0.66636    0.51870    0.00000
3
Step: 41 --- Kinetic Energy: 0.00130661 J/mol --- Potential Energy: -0.00229219 J/mol --- Total Energy: -0.00098558 J/mol
O     0.00000    0.00899    0.00000
H     0.66081    0.51463    0.00000
H    -0.66081    0.51463    0.00000
3
Step: 42 --- Kinetic Energy: 0.00143468 J/mol --- Potential Energy: -0.00242011 J/mol --- Total Energy: -0.00098544 J/mol
O     0.00000    0.00953    0.00000
H     0.65499    0.51037    0.00000
H    -0.65499    0.51037    0.00000
3
Step: 43 --- Kinetic Energy: 0.00157795 J/mol --- Potential Energy: -0.00256321 J/mol --- Total Energy: -0.00098526 J/mol
O     0.00000    0.01009    0.00000
H     0.64890    0.50590    0.00000
H    -0.64890    0.50590    0.00000
3
Step: 44 --- Kinetic Energy: 0.00173900 J/mol --- Potential Energy: -0.00272405 J/mol --- Total Energy: -0.00098505 J/mol
O     0.00000    0.01068    0.00000
H     0.64250    0.50121    0.00000
H    -0.64250    0.50121    0.00000
3
Step: 45 --- Kinetic Energy: 0.00192097 J/mol --- Potential Energy: -0.00290575 J/mol --- Total Energy: -0.00098478 J/mol
O     0.00000    0.01130    0.00000
H     0.63578    0.49629    0.00000
H    -0.63578    0.49629    0.00000
3
Step: 46 --- Kinetic Energy: 0.00212778 J/mol --- Potential Energy: -0.00311223 J/mol --- Total Energy: -0.00098445 J/mol
O     0.00000    0.01196    0.00000
H     0.62871    0.49112    0.00000
H    -0.62871    0.49112    0.00000
3
Step: 47 --- Kinetic Energy: 0.00236434 J/mol --- Potential Energy: -0.00334836 J/mol --- Total Energy: -0.00098402 J/mol
O     0.00000    0.01264    0.00000
H     0.62126    0.48567    0.00000
H    -0.62126    0.48567    0.00000
3
Step: 48 --- Kinetic Energy: 0.00263689 J/mol --- Potential Energy: -0.00362036 J/mol --- Total Energy: -0.00098347 J/mol
O     0.00000    0.01337    0.00000
H     0.61341    0.47992    0.00000
H    -0.61341    0.47992    0.00000
3
Step: 49 --- Kinetic Energy: 0.00295344 J/mol --- Potential Energy: -0.00393619 J/mol --- Total Energy: -0.00098276 J/mol
O     0.00000    0.01413    0.00000
H     0.60510    0.47385    0.00000
H    -0.60510    0.47385    0.00000
3
Step: 50 --- Kinetic Energy: 0.00332446 J/mol --- Potential Energy: -0.00430627 J/mol --- Total Energy: -0.00098181 J/mol
O     0.00000    0.01494    0.00000
H     0.59630    0.46742    0.00000
H    -0.59630    0.46742    0.00000
3
Step: 51 --- Kinetic Energy: 0.00376388 J/mol --- Potential Energy: -0.00474440 J/mol --- Total Energy: -0.00098052 J/mol
O     0.00000    0.01580    0.00000
H     0.58694    0.46059    0.00000
H    -0.58694    0.46059    0.00000
3
Step: 52 --- Kinetic Energy: 0.00429051 J/mol --- Potential Energy: -0.00526925 J/mol --- Total Energy: -0.00097874 J/mol
O     0.00000    0.01672    0.00000
H     0.57697    0.45331    0.00000
H    -0.57697    0.45331    0.00000
3
Step: 53 --- Kinetic Energy: 0.00493039 J/mol --- Potential Energy: -0.00590661 J/mol --- Total Energy: -0.00097623 J/mol
O     0.00000    0.01770    0.00000
H     0.56631    0.44553    0.00000
H    -0.56631    0.44553    0.00000
3
Step: 54 --- Kinetic Energy: 0.00572040 J/mol --- Potential Energy: -0.00669297 J/mol --- Total Energy: -0.00097257 J/mol
O     0.00000    0.01875    0.00000
H     0.55484    0.43718    0.00000
H    -0.55484    0.43718    0.00000
3
Step: 55 --- Kinetic Energy: 0.00671441 J/mol --- Potential Energy: -0.00768148 J/mol --- Total Energy: -0.00096706 J/mol
O     0.00000    0.01989    0.00000
H     0.54246    0.42817    0.00000
H    -0.54246    0.42817    0.00000
3
Step: 56 --- Kinetic Energy: 0.00799373 J/mol --- Potential Energy: -0.00895218 J/mol --- Total Energy: -0.00095846 J/mol
O     0.00000    0.02112    0.00000
H     0.52900    0.41838    0.00000
H    -0.52900    0.41838    0.00000
3
Step: 57 --- Kinetic Energy: 0.00968623 J/mol --- Potential Energy: -0.01063059 J/mol --- Total Energy: -0.00094435 J/mol
O     0.00000    0.02247    0.00000
H     0.51425    0.40767    0.00000
H    -0.51425    0.40767    0.00000
3
Step: 58 --- Kinetic Energy: 0.01200332 J/mol --- Potential Energy: -0.01292319 J/mol --- Total Energy: -0.00091987 J/mol
O     0.00000    0.02396    0.00000
H     0.49793    0.39584    0.00000
H    -0.49793    0.39584    0.00000
3
Step: 59 --- Kinetic Energy: 0.01531637 J/mol --- Potential Energy: -0.01619061 J/mol --- Total Energy: -0.00087424 J/mol
O     0.00000    0.02563    0.00000
H     0.47965    0.38261    0.00000
H    -0.47965    0.38261    0.00000
3
Step: 60 --- Kinetic Energy: 0.02033016 J/mol --- Potential Energy: -0.02111134 J/mol --- Total Energy: -0.00078118 J/mol
O     0.00000    0.02753    0.00000
H     0.45881    0.36756    0.00000
H    -0.45881    0.36756    0.00000
3
Step: 61 --- Kinetic Energy: 0.02851955 J/mol --- Potential Energy: -0.02908829 J/mol --- Total Energy: -0.00056874 J/mol
O     0.00000    0.02973    0.00000
H     0.43452    0.35008    0.00000
H    -0.43452    0.35008    0.00000
3
Step: 62 --- Kinetic Energy: 0.04336725 J/mol --- Potential Energy: -0.04338510 J/mol --- Total Energy: -0.00001784 J/mol
O     0.00000    0.03237    0.00000
H     0.40530    0.32913    0.00000
H    -0.40530    0.32913    0.00000
3
Step: 63 --- Kinetic Energy: 0.07393129 J/mol --- Potential Energy: -0.07253405 J/mol --- Total Energy: 0.00139724 J/mol
O     0.00000    0.03568    0.00000
H     0.36841    0.30284    0.00000
H    -0.36841    0.30284    0.00000
3
Step: 64 --- Kinetic Energy: 0.12352381 J/mol --- Potential Energy: -0.13096900 J/mol --- Total Energy: -0.00744519 J/mol
O     0.00000    0.04010    0.00000
H     0.31870    0.26779    0.00000
H    -0.31870    0.26779    0.00000
3
Step: 65 --- Kinetic Energy: 1.39520143 J/mol --- Potential Energy: 0.39341483 J/mol --- Total Energy: 1.78861626 J/mol
O     0.00000    0.04554    0.00000
H     0.25564    0.22462    0.00000
H    -0.25564    0.22462    0.00000
3
Step: 66 --- Kinetic Energy: 7.57866783 J/mol --- Potential Energy: -0.00172406 J/mol --- Total Energy: 7.57694377 J/mol
O     0.00000    0.00614    0.00000
H     0.69242    0.53731    0.00000
H    -0.69242    0.53731    0.00000
3
Step: 67 --- Kinetic Energy: 7.57525358 J/mol --- Potential Energy: -0.00008819 J/mol --- Total Energy: 7.57516539 J/mol
O     0.00000   -0.03325    0.00000
H     1.12902    0.84985    0.00000
H    -1.12902    0.84985    0.00000
3
Step: 68 --- Kinetic Energy: 7.57513987 J/mol --- Potential Energy: -0.00001217 J/mol --- Total Energy: 7.57512770 J/mol
O     0.00000   -0.07263    0.00000
H     1.56561    1.16239    0.00000
H    -1.56561    1.16239    0.00000
3
Step: 69 --- Kinetic Energy: 7.57512779 J/mol --- Potential Energy: -0.00000275 J/mol --- Total Energy: 7.57512504 J/mol
O     0.00000   -0.11201    0.00000
H     2.00220    1.47494    0.00000
H    -2.00220    1.47494    0.00000
3
Step: 70 --- Kinetic Energy: 7.57512553 J/mol --- Potential Energy: -0.00000084 J/mol --- Total Energy: 7.57512469 J/mol
O     0.00000   -0.15140    0.00000
H     2.43878    1.78748    0.00000
H    -2.43878    1.78748    0.00000
3
Step: 71 --- Kinetic Energy: 7.57512493 J/mol --- Potential Energy: -0.00000031 J/mol --- Total Energy: 7.57512462 J/mol
O     0.00000   -0.19078    0.00000
H     2.87537    2.10002    0.00000
H    -2.87537    2.10002    0.00000
3
Step: 72 --- Kinetic Energy: 7.57512474 J/mol --- Potential Energy: -0.00000013 J/mol --- Total Energy: 7.57512460 J/mol
O     0.00000   -0.23016    0.00000
H     3.31196    2.41256    0.00000
H    -3.31196    2.41256    0.00000
3
Step: 73 --- Kinetic Energy: 7.57512466 J/mol --- Potential Energy: -0.00000006 J/mol --- Total Energy: 7.57512460 J/mol
O     0.00000   -0.26954    0.00000
H     3.74855    2.72510    0.00000
H    -3.74855    2.72510    0.00000
3
Step: 74 --- Kinetic Energy: 7.57512463 J/mol --- Potential Energy: -0.00000003 J/mol --- Total Energy: 7.57512460 J/mol
O     0.00000   -0.30893    0.00000
H     4.18514    3.03764    0.00000
H    -4.18514    3.03764    0.00000
3
Step: 75 --- Kinetic Energy: 7.57512461 J/mol --- Potential Energy: -0.00000002 J/mol --- Total Energy: 7.57512460 J/mol
O     0.00000   -0.34831    0.00000
H     4.62173    3.35018    0.00000
H    -4.62173    3.35018    0.00000
3
Step: 76 --- Kinetic Energy: 7.57512461 J/mol --- Potential Energy: -0.00000001 J/mol --- Total Energy: 7.57512460 J/mol
O     0.00000   -0.38769    0.00000
H     5.05831    3.66273    0.00000
H    -5.05831    3.66273    0.00000
3
Step: 77 --- Kinetic Energy: 7.57512460 J/mol --- Potential Energy: -0.00000001 J/mol --- Total Energy: 7.57512460 J/mol
O     0.00000   -0.42707    0.00000
H     5.49490    3.97527    0.00000
H    -5.49490    3.97527    0.00000
3
Step: 78 --- Kinetic Energy: 7.57512460 J/mol --- Potential Energy: -0.00000000 J/mol --- Total Energy: 7.57512460 J/mol
O     0.00000   -0.46646    0.00000
H     5.93149    4.28781    0.00000
H    -5.93149    4.28781    0.00000
3
Step: 79 --- Kinetic Energy: 7.57512460 J/mol --- Potential Energy: -0.00000000 J/mol --- Total Energy: 7.57512460 J/mol
O     0.00000   -0.50584    0.00000
H     6.36808    4.60035    0.00000
H    -6.36808    4.60035    0.00000
3
Step: 80 --- Kinetic Energy: 7.57512460 J/mol --- Potential Energy: -0.00000000 J/mol --- Total Energy: 7.57512460 J/mol
O     0.00000   -0.54522    0.00000
H     6.80467    4.91289    0.00000
H    -6.80467    4.91289    0.00000
3
Step: 81 --- Kinetic Energy: 7.57512460 J/mol --- Potential Energy: -0.00000000 J/mol --- Total Energy: 7.57512460 J/mol
O     0.00000   -0.58461    0.00000
H     7.24125    5.22543    0.00000
H    -7.24125    5.22543    0.00000
3
Step: 82 --- Kinetic Energy: 7.57512460 J/mol --- Potential Energy: -0.00000000 J/mol --- Total Energy: 7.57512460 J/mol
O     0.00000   -0.62399    0.00000
H     7.67784    5.53797    0.00000
H    -7.67784    5.53797    0.00000
3
Step: 83 --- Kinetic Energy: 7.57512460 J/mol --- Potential Energy: -0.00000000 J/mol --- Total Energy: 7.57512460 J/mol
O     0.00000   -0.66337    0.00000
H     8.11443    5.85052    0.00000
H    -8.11443    5.85052    0.00000
3
Step: 84 --- Kinetic Energy: 7.57512460 J/mol --- Potential Energy: -0.00000000 J/mol --- Total Energy: 7.57512460 J/mol
O     0.00000   -0.70275    0.00000
H     8.55102    6.16306    0.00000
H    -8.55102    6.16306    0.00000
3
Step: 85 --- Kinetic Energy: 7.57512460 J/mol --- Potential Energy: -0.00000000 J/mol --- Total Energy: 7.57512460 J/mol
O     0.00000   -0.74214    0.00000
H     8.98761    6.47560    0.00000
H    -8.98761    6.47560    0.00000
3
Step: 86 --- Kinetic Energy: 7.57512460 J/mol --- Potential Energy: -0.00000000 J/mol --- Total Energy: 7.57512460 J/mol
O     0.00000   -0.78152    0.00000
H     9.42420    6.78814    0.00000
H    -9.42420    6.78814    0.00000
3
Step: 87 --- Kinetic Energy: 7.57512460 J/mol --- Potential Energy: -0.00000000 J/mol --- Total Energy: 7.57512460 J/mol
O     0.00000   -0.82090    0.00000
H     9.86078    7.10068    0.00000
H    -9.86078    7.10068    0.00000
3
Step: 88 --- Kinetic Energy: 7.57512460 J/mol --- Potential Energy: -0.00000000 J/mol --- Total Energy: 7.57512460 J/mol
O     0.00000   -0.86028    0.00000
H    10.29737    7.41322    0.00000
H   -10.29737    7.41322    0.00000
3
Step: 89 --- Kinetic Energy: 7.57512460 J/mol --- Potential Energy: -0.00000000 J/mol --- Total Energy: 7.57512460 J/mol
O     0.00000   -0.89967    0.00000
H    10.73396    7.72577    0.00000
H   -10.73396    7.72577    0.00000
3
Step: 90 --- Kinetic Energy: 7.57512460 J/mol --- Potential Energy: -0.00000000 J/mol --- Total Energy: 7.57512460 J/mol
O     0.00000   -0.93905    0.00000
H    11.17055    8.03831    0.00000
H   -11.17055    8.03831    0.00000
3
Step: 91 --- Kinetic Energy: 7.57512460 J/mol --- Potential Energy: -0.00000000 J/mol --- Total Energy: 7.57512460 J/mol
O     0.00000   -0.97843    0.00000
H    11.60714    8.35085    0.00000
H   -11.60714    8.35085    0.00000
3
Step: 92 --- Kinetic Energy: 7.57512460 J/mol --- Potential Energy: -0.00000000 J/mol --- Total Energy: 7.57512460 J/mol
O     0.00000   -1.01781    0.00000
H    12.04372    8.66339    0.00000
H   -12.04372    8.66339    0.00000
3
Step: 93 --- Kinetic Energy: 7.57512460 J/mol --- Potential Energy: -0.00000000 J/mol --- Total Energy: 7.57512460 J/mol
O     0.00000   -1.05720    0.00000
H    12.48031    8.97593    0.00000
H   -12.48031    8.97593    0.00000
3
Step: 94 --- Kinetic Energy: 7.57512460 J/mol --- Potential Energy: -0.00000000 J/mol --- Total Energy: 7.57512460 J/mol
O     0.00000   -1.09658    0.00000
H    12.91690    9.28847    0.00000
H   -12.91690    9.28847    0.00000
3
Step: 95 --- Kinetic Energy: 7.57512460 J/mol --- Potential Energy: -0.00000000 J/mol --- Total Energy: 7.57512460 J/mol
O     0.00000   -1.13596    0.00000
H    13.35349    9.60101    0.00000
H   -13.35349    9.60101    0.00000
3
Step: 96 --- Kinetic Energy: 7.57512460 J/mol --- Potential Energy: -0.00000000 J/mol --- Total Energy: 7.57512460 J/mol
O     0.00000   -1.17535    0.00000
H    13.79008    9.91356    0.00000
H   -13.79008    9.91356    0.00000
3
Step: 97 --- Kinetic Energy: 7.57512460 J/mol --- Potential Energy: -0.00000000 J/mol --- Total Energy: 7.57512460 J/mol
O     0.00000   -1.21473    0.00000
H    14.22667   10.22610    0.00000
H   -14.22667   10.22610    0.00000
3
Step: 98 --- Kinetic Energy: 7.57512460 J/mol --- Potential Energy: -0.00000000 J/mol --- Total Energy: 7.57512460 J/mol
O     0.00000   -1.25411    0.00000
H    14.66325   10.53864    0.00000
H   -14.66325   10.53864    0.00000
3
Step: 99 --- Kinetic Energy: 7.57512460 J/mol --- Potential Energy: -0.00000000 J/mol --- Total Energy: 7.57512460 J/mol
O     0.00000   -1.29349    0.00000
H    15.09984   10.85118    0.00000
H   -15.09984   10.85118    0.00000
3
Step: 100 --- Kinetic Energy: 7.57512460 J/mol --- Potential Energy: -0.00000000 J/mol --- Total Energy: 7.57512460 J/mol
O     0.00000   -1.33288    0.00000
H    15.53643   11.16372    0.00000
H   -15.53643   11.16372    0.00000
3
Step: 101 --- Kinetic Energy: 7.57512460 J/mol --- Potential Energy: -0.00000000 J/mol --- Total Energy: 7.57512460 J/mol
O     0.00000   -1.37226    0.00000
H    15.97302   11.47626    0.00000
H   -15.97302   11.47626    0.00000
3
Step: 102 --- Kinetic Energy: 7.57512460 J/mol --- Potential Energy: -0.00000000 J/mol --- Total Energy: 7.57512460 J/mol
O     0.00000   -1.41164    0.00000
H    16.40961   11.78881    0.00000
H   -16.40961   11.78881    0.00000
3
Step: 103 --- Kinetic Energy: 7.57512460 J/mol --- Potential Energy: -0.00000000 J/mol --- Total Energy: 7.57512460 J/mol
O     0.00000   -1.45102    0.00000
H    16.84619   12.10135    0.00000
H   -16.84619   12.10135    0.00000
3
Step: 104 --- Kinetic Energy: 7.57512460 J/mol --- Potential Energy: -0.00000000 J/mol --- Total Energy: 7.57512460 J/mol
O     0.00000   -1.49041    0.00000
H    17.28278   12.41389    0.00000
H   -17.28278   12.41389    0.00000
3
Step: 105 --- Kinetic Energy: 7.57512460 J/mol --- Potential Energy: -0.00000000 J/mol --- Total Energy: 7.57512460 J/mol
O     0.00000   -1.52979    0.00000
H    17.71937   12.72643    0.00000
H   -17.71937   12.72643    0.00000
3
Step: 106 --- Kinetic Energy: 7.57512460 J/mol --- Potential Energy: -0.00000000 J/mol --- Total Energy: 7.57512460 J/mol
O     0.00000   -1.56917    0.00000
H    18.15596   13.03897    0.00000
H   -18.15596   13.03897    0.00000
3
Step: 107 --- Kinetic Energy: 7.57512460 J/mol --- Potential Energy: -0.00000000 J/mol --- Total Energy: 7.57512460 J/mol
O     0.00000   -1.60856    0.00000
H    18.59255   13.35151    0.00000
H   -18.59255   13.35151    0.00000
3
Step: 108 --- Kinetic Energy: 7.57512460 J/mol --- Potential Energy: -0.00000000 J/mol --- Total Energy: 7.57512460 J/mol
O     0.00000   -1.64794    0.00000
H    19.02914   13.66405    0.00000
H   -19.02914   13.66405    0.00000
3
Step: 109 --- Kinetic Energy: 7.57512460 J/mol --- Potential Energy: -0.00000000 J/mol --- Total Energy: 7.57512460 J/mol
O     0.00000   -1.68732    0.00000
H    19.46572   13.97660    0.00000
H   -19.46572   13.97660    0.00000
3
Step: 110 --- Kinetic Energy: 7.57512460 J/mol --- Potential Energy: -0.00000000 J/mol --- Total Energy: 7.57512460 J/mol
O     0.00000   -1.72670    0.00000
H    19.90231   14.28914    0.00000
H   -19.90231   14.28914    0.00000
3
Step: 111 --- Kinetic Energy: 7.57512460 J/mol --- Potential Energy: -0.00000000 J/mol --- Total Energy: 7.57512460 J/mol
O     0.00000   -1.76609    0.00000
H    20.33890   14.60168    0.00000
H   -20.33890   14.60168    0.00000
3
Step: 112 --- Kinetic Energy: 7.57512460 J/mol --- Potential Energy: -0.00000000 J/mol --- Total Energy: 7.57512460 J/mol
O     0.00000   -1.80547    0.00000
H    20.77549   14.91422    0.00000
H   -20.77549   14.91422    0.00000
3
Step: 113 --- Kinetic Energy: 7.57512460 J/mol --- Potential Energy: -0.00000000 J/mol --- Total Energy: 7.57512460 J/mol
O     0.00000   -1.84485    0.00000
H    21.21208   15.22676    0.00000
H   -21.21208   15.22676    0.00000
3
Step: 114 --- Kinetic Energy: 7.57512460 J/mol --- Potential Energy: -0.00000000 J/mol --- Total Energy: 7.57512460 J/mol
O     0.00000   -1.88423    0.00000
H    21.64867   15.53930    0.00000
H   -21.64867   15.53930    0.00000
3
Step: 115 --- Kinetic Energy: 7.57512460 J/mol --- Potential Energy: -0.00000000 J/mol --- Total Energy: 7.57512460 J/mol
O     0.00000   -1.92362    0.00000
H    22.08525   15.85185    0.00000
H   -22.08525   15.85185    0.00000
3
Step: 116 --- Kinetic Energy: 7.57512460 J/mol --- Potential Energy: -0.00000000 J/mol --- Total Energy: 7.57512460 J/mol
O     0.00000   -1.96300    0.00000
H    22.52184   16.16439    0.00000
H   -22.52184   16.16439    0.00000
3
Step: 117 --- Kinetic Energy: 7.57512460 J/mol --- Potential Energy: -0.00000000 J/mol --- Total Energy: 7.57512460 J/mol
O     0.00000   -2.00238    0.00000
H    22.95843   16.47693    0.00000
H   -22.95843   16.47693    0.00000
3
Step: 118 --- Kinetic Energy: 7.57512460 J/mol --- Potential Energy: -0.00000000 J/mol --- Total Energy: 7.57512460 J/mol
O     0.00000   -2.04176    0.00000
H    23.39502   16.78947    0.00000
H   -23.39502   16.78947    0.00000
3
Step: 119 --- Kinetic Energy: 7.57512460 J/mol --- Potential Energy: -0.00000000 J/mol --- Total Energy: 7.57512460 J/mol
O     0.00000   -2.08115    0.00000
H    23.83161   17.10201    0.00000
H   -23.83161   17.10201    0.00000
3
Step: 120 --- Kinetic Energy: 7.57512460 J/mol --- Potential Energy: -0.00000000 J/mol --- Total Energy: 7.57512460 J/mol
O     0.00000   -2.12053    0.00000
H    24.26819   17.41455    0.00000
H   -24.26819   17.41455    0.00000
3
Step: 121 --- Kinetic Energy: 7.57512460 J/mol --- Potential Energy: -0.00000000 J/mol --- Total Energy: 7.57512460 J/mol
O     0.00000   -2.15991    0.00000
H    24.70478   17.72709    0.00000
H   -24.70478   17.72709    0.00000
3
Step: 122 --- Kinetic Energy: 7.57512460 J/mol --- Potential Energy: -0.00000000 J/mol --- Total Energy: 7.57512460 J/mol
O     0.00000   -2.19930    0.00000
H    25.14137   18.03964    0.00000
H   -25.14137   18.03964    0.00000
3
Step: 123 --- Kinetic Energy: 7.57512460 J/mol --- Potential Energy: -0.00000000 J/mol --- Total Energy: 7.57512460 J/mol
O     0.00000   -2.23868    0.00000
H    25.57796   18.35218    0.00000
H   -25.57796   18.35218    0.00000
3
Step: 124 --- Kinetic Energy: 7.57512460 J/mol --- Potential Energy: -0.00000000 J/mol --- Total Energy: 7.57512460 J/mol
O     0.00000   -2.27806    0.00000
H    26.01455   18.66472    0.00000
H   -26.01455   18.66472    0.00000
3
Step: 125 --- Kinetic Energy: 7.57512460 J/mol --- Potential Energy: -0.00000000 J/mol --- Total Energy: 7.57512460 J/mol
O     0.00000   -2.31744    0.00000
H    26.45114   18.97726    0.00000
H   -26.45114   18.97726    0.00000
3
Step: 126 --- Kinetic Energy: 7.57512460 J/mol --- Potential Energy: -0.00000000 J/mol --- Total Energy: 7.57512460 J/mol
O     0.00000   -2.35683    0.00000
H    26.88772   19.28980    0.00000
H   -26.88772   19.28980    0.00000
3
Step: 127 --- Kinetic Energy: 7.57512460 J/mol --- Potential Energy: -0.00000000 J/mol --- Total Energy: 7.57512460 J/mol
O     0.00000   -2.39621    0.00000
H    27.32431   19.60234    0.00000
H   -27.32431   19.60234    0.00000
3
Step: 128 --- Kinetic Energy: 7.57512460 J/mol --- Potential Energy: -0.00000000 J/mol --- Total Energy: 7.57512460 J/mol
O     0.00000   -2.43559    0.00000
H    27.76090   19.91488    0.00000
H   -27.76090   19.91488    0.00000
3