30
Step: 0 --- Kinetic Energy: 0.00000000 J/mol --- Potential Energy: -0.01200576 J/mol --- Total Energy: -0.01200576 J/mol
O     0.00000    0.00000    0.00000
H     0.75800    0.58600    0.00000
H    -0.75800    0.58600    0.00000
O     2.50000    0.00000    0.00000
H     3.25800    0.58600    0.00000
H     1.74200    0.58600    0.00000
O    -2.50000    0.00000    0.00000
H    -1.74200    0.58600    0.00000
H    -3.25800    0.58600    0.00000
O     0.00000    2.50000    0.00000
H     0.75800    3.08600    0.00000
H    -0.75800    3.08600    0.00000
O     0.00000   -2.50000    0.00000
H     0.75800   -1.91400    0.00000
H    -0.75800   -1.91400    0.00000
O     2.50000    2.50000    0.00000
H     3.25800    3.08600    0.00000
H     1.74200    3.08600    0.00000
O    -2.50000   -2.50000    0.00000
H    -1.74200   -1.91400    0.00000
H    -3.25800   -1.91400    0.00000
O     2.50000   -2.50000    0.00000
H     3.25800   -1.91400    0.00000
H     1.74200   -1.91400    0.00000
O    -2.50000    2.50000    0.00000
H    -1.74200    3.08600    0.00000
H    -3.25800    3.08600    0.00000
O     0.00000    0.00000    2.50000
H     0.75800    0.58600    3.08600
H    -0.75800    0.58600    3.08600
30
Step: 1 --- Kinetic Energy: 0.00000213 J/mol --- Potential Energy: -0.01200789 J/mol --- Total Energy: -0.01200576 J/mol
O     0.00000    0.00000    0.00000
H     0.75800    0.58596    0.00000
H    -0.75800    0.58596    0.00000
O     2.50000    0.00000    0.00000
H     3.25795    0.58596    0.00000
H     1.74200    0.58596    0.00000
O    -2.50000    0.00000    0.00000
H    -1.74200    0.58596    0.00000
H    -3.25795    0.58596    0.00000
O     0.00000    2.50000    0.00000
H     0.75800    3.08596    0.00000
H    -0.75800    3.08596    0.00000
O     0.00000   -2.50000    0.00000
H     0.75800   -1.91404    0.00000
H    -0.75800   -1.91404    0.00000
O     2.50000    2.50000    0.00000
H     3.25795    3.08596    0.00000
H     1.74200    3.08596    0.00000
O    -2.50000   -2.50000    0.00000
H    -1.74200   -1.91404    0.00000
H    -3.25795   -1.91404    0.00000
O     2.50000   -2.50000    0.00000
H     3.25795   -1.91404    0.00000
H     1.74200   -1.91404    0.00000
O    -2.50000    2.50000    0.00000
H    -1.74200    3.08596    0.00000
H    -3.25795    3.08596    0.00000
O     0.00000    0.00000    2.50000
H     0.75798    0.58599    3.08599
H    -0.75798    0.58599    3.08599
30
Step: 2 --- Kinetic Energy: 0.00000852 J/mol --- Potential Energy: -0.01201428 J/mol --- Total Energy: -0.01200576 J/mol
O     0.00000    0.00002    0.00000
H     0.75800    0.58586    0.00000
H    -0.75800    0.58586    0.00000
O     2.50000    0.00002    0.00000
H     3.25780    0.58586    0.00000
H     1.74200    0.58586    0.00000
O    -2.50000    0.00002    0.00000
H    -1.74200    0.58586    0.00000
H    -3.25780    0.58586    0.00000
O    -0.00000    2.50002    0.00000
H     0.75800    3.08585    0.00000
H    -0.75800    3.08585    0.00000
O     0.00000   -2.49998    0.00000
H     0.75800   -1.91414    0.00000
H    -0.75800   -1.91414    0.00000
O     2.50000    2.50002    0.00000
H     3.25780    3.08585    0.00000
H     1.74200    3.08585    0.00000
O    -2.50000   -2.49998    0.00000
H    -1.74200   -1.91414    0.00000
H    -3.25780   -1.91414    0.00000
O     2.50000   -2.49998    0.00000
H     3.25780   -1.91414    0.00000
H     1.74200   -1.91414    0.00000
O    -2.50000    2.50002    0.00000
H    -1.74200    3.08585    0.00000
H    -3.25780    3.08585    0.00000
O     0.00000    0.00001    2.50001
H     0.75794    0.58596    3.08596
H    -0.75794    0.58596    3.08596
30
Step: 3 --- Kinetic Energy: 0.00001919 J/mol --- Potential Energy: -0.01202495 J/mol --- Total Energy: -0.01200576 J/mol
O     0.00000    0.00004    0.00000
H     0.75800    0.58567    0.00000
H    -0.75800    0.58567    0.00000
O     2.50000    0.00004    0.00000
H     3.25755    0.58568    0.00000
H     1.74200    0.58567    0.00000
O    -2.50000    0.00004    0.00000
H    -1.74200    0.58567    0.00000
H    -3.25755    0.58568    0.00000
O    -0.00000    2.50004    0.00000
H     0.75800    3.08567    0.00000
H    -0.75800    3.08567    0.00000
O     0.00000   -2.49996    0.00000
H     0.75800   -1.91432    0.00000
H    -0.75800   -1.91432    0.00000
O     2.50000    2.50004    0.00000
H     3.25756    3.08567    0.00000
H     1.74199    3.08567    0.00000
O    -2.50000   -2.49996    0.00000
H    -1.74200   -1.91432    0.00000
H    -3.25755   -1.91432    0.00000
O     2.50000   -2.49996    0.00000
H     3.25755   -1.91432    0.00000
H     1.74200   -1.91432    0.00000
O    -2.50000    2.50004    0.00000
H    -1.74199    3.08567    0.00000
H    -3.25756    3.08567    0.00000
O     0.00000    0.00001    2.50001
H     0.75786    0.58591    3.08591
H    -0.75786    0.58591    3.08591
30
Step: 4 --- Kinetic Energy: 0.00003417 J/mol --- Potential Energy: -0.01203992 J/mol --- Total Energy: -0.01200575 J/mol
O     0.00000    0.00007    0.00000
H     0.75801    0.58542    0.00000
H    -0.75801    0.58542    0.00000
O     2.50000    0.00007    0.00000
H     3.25721    0.58542    0.00000
H     1.74199    0.58542    0.00000
O    -2.50000    0.00007    0.00000
H    -1.74199    0.58542    0.00000
H    -3.25721    0.58542    0.00000
O    -0.00000    2.50007    0.00000
H     0.75801    3.08541    0.00000
H    -0.75801    3.08541    0.00000
O     0.00000   -2.49993    0.00000
H     0.75801   -1.91458    0.00000
H    -0.75801   -1.91458    0.00000
O     2.50000    2.50007    0.00000
H     3.25721    3.08542    0.00000
H     1.74199    3.08541    0.00000
O    -2.50000   -2.49993    0.00000
H    -1.74199   -1.91458    0.00000
H    -3.25721   -1.91457    0.00000
O     2.50000   -2.49993    0.00000
H     3.25721   -1.91457    0.00000
H     1.74199   -1.91458    0.00000
O    -2.50000    2.50007    0.00000
H    -1.74199    3.08541    0.00000
H    -3.25721    3.08542    0.00000
O     0.00000    0.00002    2.50002
H     0.75775    0.58584    3.08584
H    -0.75775    0.58584    3.08584
30
Step: 5 --- Kinetic Energy: 0.00005349 J/mol --- Potential Energy: -0.01205924 J/mol --- Total Energy: -0.01200575 J/mol
O     0.00000    0.00011    0.00000
H     0.75801    0.58509    0.00000
H    -0.75801    0.58509    0.00000
O     2.50000    0.00011    0.00000
H     3.25676    0.58510    0.00000
H     1.74199    0.58510    0.00000
O    -2.50000    0.00011    0.00000
H    -1.74199    0.58510    0.00000
H    -3.25676    0.58510    0.00000
O    -0.00000    2.50011    0.00000
H     0.75801    3.08508    0.00000
H    -0.75801    3.08508    0.00000
O     0.00000   -2.49988    0.00000
H     0.75801   -1.91490    0.00000
H    -0.75801   -1.91490    0.00000
O     2.50000    2.50011    0.00000
H     3.25676    3.08509    0.00000
H     1.74199    3.08508    0.00000
O    -2.50000   -2.49989    0.00000
H    -1.74199   -1.91490    0.00000
H    -3.25676   -1.91490    0.00000
O     2.50000   -2.49989    0.00000
H     3.25676   -1.91490    0.00000
H     1.74199   -1.91490    0.00000
O    -2.50000    2.50011    0.00000
H    -1.74199    3.08508    0.00000
H    -3.25676    3.08509    0.00000
O     0.00000    0.00003    2.50003
H     0.75761    0.58575    3.08574
H    -0.75761    0.58575    3.08574
30
Step: 6 --- Kinetic Energy: 0.00007720 J/mol --- Potential Energy: -0.01208295 J/mol --- Total Energy: -0.01200575 J/mol
O     0.00000    0.00016    0.00000
H     0.75801    0.58470    0.00000
H    -0.75801    0.58470    0.00000
O     2.50000    0.00016    0.00000
H     3.25621    0.58470    0.00000
H     1.74198    0.58470    0.00000
O    -2.50000    0.00016    0.00000
H    -1.74198    0.58470    0.00000
H    -3.25621    0.58470    0.00000
O    -0.00000    2.50016    0.00000
H     0.75802    3.08468    0.00000
H    -0.75802    3.08468    0.00000
O     0.00000   -2.49983    0.00000
H     0.75801   -1.91530    0.00000
H    -0.75801   -1.91530    0.00000
O     2.50000    2.50016    0.00000
H     3.25622    3.08469    0.00000
H     1.74198    3.08468    0.00000
O    -2.50000   -2.49983    0.00000
H    -1.74198   -1.91530    0.00000
H    -3.25621   -1.91530    0.00000
O     2.50000   -2.49983    0.00000
H     3.25621   -1.91530    0.00000
H     1.74198   -1.91530    0.00000
O    -2.50000    2.50016    0.00000
H    -1.74198    3.08468    0.00000
H    -3.25622    3.08469    0.00000
O     0.00000    0.00005    2.50005
H     0.75744    0.58563    3.08563
H    -0.75744    0.58563    3.08563
30
Step: 7 --- Kinetic Energy: 0.00010537 J/mol --- Potential Energy: -0.01211111 J/mol --- Total Energy: -0.01200574 J/mol
O     0.00000    0.00022    0.00000
H     0.75802    0.58423    0.00000
H    -0.75802    0.58423    0.00000
O     2.50000    0.00022    0.00000
H     3.25556    0.58423    0.00000
H     1.74198    0.58423    0.00000
O    -2.50000    0.00022    0.00000
H    -1.74198    0.58423    0.00000
H    -3.25556    0.58423    0.00000
O    -0.00000    2.50022    0.00000
H     0.75802    3.08420    0.00000
H    -0.75802    3.08420    0.00000
O     0.00000   -2.49977    0.00000
H     0.75802   -1.91577    0.00000
H    -0.75802   -1.91577    0.00000
O     2.50000    2.50022    0.00000
H     3.25557    3.08421    0.00000
H     1.74197    3.08420    0.00000
O    -2.50000   -2.49977    0.00000
H    -1.74198   -1.91577    0.00000
H    -3.25557   -1.91577    0.00000
O     2.50000   -2.49977    0.00000
H     3.25557   -1.91577    0.00000
H     1.74198   -1.91577    0.00000
O    -2.50000    2.50022    0.00000
H    -1.74197    3.08420    0.00000
H    -3.25557    3.08421    0.00000
O     0.00000    0.00006    2.50006
H     0.75724    0.58550    3.08550
H    -0.75724    0.58550    3.08550
30
Step: 8 --- Kinetic Energy: 0.00013806 J/mol --- Potential Energy: -0.01214380 J/mol --- Total Energy: -0.01200574 J/mol
O     0.00000    0.00029    0.00000
H     0.75802    0.58368    0.00000
H    -0.75802    0.58368    0.00000
O     2.50000    0.00029    0.00000
H     3.25481    0.58368    0.00000
H     1.74197    0.58368    0.00000
O    -2.50000    0.00029    0.00000
H    -1.74197    0.58368    0.00000
H    -3.25481    0.58368    0.00000
O    -0.00000    2.50029    0.00000
H     0.75803    3.08365    0.00000
H    -0.75803    3.08365    0.00000
O     0.00000   -2.49971    0.00000
H     0.75802   -1.91631    0.00000
H    -0.75802   -1.91631    0.00000
O     2.50000    2.50029    0.00000
H     3.25482    3.08366    0.00000
H     1.74197    3.08365    0.00000
O    -2.50000   -2.49971    0.00000
H    -1.74197   -1.91631    0.00000
H    -3.25482   -1.91631    0.00000
O     2.50000   -2.49971    0.00000
H     3.25482   -1.91631    0.00000
H     1.74197   -1.91631    0.00000
O    -2.50000    2.50029    0.00000
H    -1.74197    3.08365    0.00000
H    -3.25482    3.08366    0.00000
O     0.00000    0.00008    2.50008
H     0.75700    0.58535    3.08534
H    -0.75700    0.58535    3.08534
30
Step: 9 --- Kinetic Energy: 0.00017537 J/mol --- Potential Energy: -0.01218110 J/mol --- Total Energy: -0.01200573 J/mol
O     0.00000    0.00037    0.00000
H     0.75802    0.58306    0.00001
H    -0.75802    0.58306    0.00001
O     2.50000    0.00037    0.00000
H     3.25396    0.58306    0.00000
H     1.74197    0.58306    0.00000
O    -2.50000    0.00037    0.00000
H    -1.74197    0.58306    0.00000
H    -3.25396    0.58306    0.00000
O    -0.00000    2.50037    0.00000
H     0.75803    3.08303    0.00000
H    -0.75803    3.08303    0.00000
O     0.00000   -2.49963    0.00000
H     0.75802   -1.91692    0.00000
H    -0.75802   -1.91692    0.00000
O     2.50000    2.50037    0.00000
H     3.25397    3.08304    0.00000
H     1.74196    3.08303    0.00000
O    -2.50000   -2.49963    0.00000
H    -1.74197   -1.91692    0.00000
H    -3.25397   -1.91693    0.00000
O     2.50000   -2.49963    0.00000
H     3.25397   -1.91693    0.00000
H     1.74197   -1.91692    0.00000
O    -2.50000    2.50037    0.00000
H    -1.74196    3.08303    0.00000
H    -3.25397    3.08304    0.00000
O     0.00000    0.00010    2.50010
H     0.75674    0.58517    3.08517
H    -0.75674    0.58517    3.08517
30
Step: 10 --- Kinetic Energy: 0.00021739 J/mol --- Potential Energy: -0.01222312 J/mol --- Total Energy: -0.01200572 J/mol
O     0.00000    0.00046    0.00000
H     0.75803    0.58237    0.00001
H    -0.75803    0.58237    0.00001
O     2.50000    0.00046    0.00000
H     3.25301    0.58237    0.00000
H     1.74196    0.58237    0.00000
O    -2.50000    0.00046    0.00000
H    -1.74196    0.58237    0.00000
H    -3.25301    0.58237    0.00000
O    -0.00000    2.50046    0.00000
H     0.75803    3.08233    0.00000
H    -0.75803    3.08233    0.00000
O     0.00000   -2.49954    0.00000
H     0.75803   -1.91761    0.00000
H    -0.75803   -1.91761    0.00000
O     2.50000    2.50046    0.00000
H     3.25302    3.08233    0.00000
H     1.74196    3.08233    0.00000
O    -2.50000   -2.49954    0.00000
H    -1.74196   -1.91761    0.00000
H    -3.25301   -1.91762    0.00000
O     2.50000   -2.49954    0.00000
H     3.25301   -1.91762    0.00000
H     1.74196   -1.91761    0.00000
O    -2.50000    2.50046    0.00000
H    -1.74196    3.08233    0.00000
H    -3.25302    3.08233    0.00000
O     0.00000    0.00013    2.50013
H     0.75644    0.58498    3.08497
H    -0.75644    0.58498    3.08497
30
Step: 11 --- Kinetic Energy: 0.00026425 J/mol --- Potential Energy: -0.01226996 J/mol --- Total Energy: -0.01200572 J/mol
O     0.00000    0.00055    0.00000
H     0.75803    0.58161    0.00001
H    -0.75803    0.58161    0.00001
O     2.50000    0.00055    0.00000
H     3.25195    0.58160    0.00000
H     1.74196    0.58161    0.00000
O    -2.50000    0.00055    0.00000
H    -1.74196    0.58161    0.00000
H    -3.25195    0.58160    0.00000
O    -0.00000    2.50055    0.00000
H     0.75804    3.08156    0.00000
H    -0.75804    3.08156    0.00000
O     0.00000   -2.49944    0.00000
H     0.75803   -1.91837    0.00000
H    -0.75803   -1.91837    0.00000
O     2.50000    2.50055    0.00000
H     3.25197    3.08156    0.00000
H     1.74195    3.08156    0.00000
O    -2.50000   -2.49944    0.00000
H    -1.74196   -1.91837    0.00000
H    -3.25195   -1.91838    0.00000
O     2.50000   -2.49944    0.00000
H     3.25195   -1.91838    0.00000
H     1.74196   -1.91837    0.00000
O    -2.50000    2.50055    0.00000
H    -1.74195    3.08156    0.00000
H    -3.25197    3.08156    0.00000
O     0.00000    0.00016    2.50015
H     0.75611    0.58476    3.08475
H    -0.75611    0.58476    3.08475
30
Step: 12 --- Kinetic Energy: 0.00031606 J/mol --- Potential Energy: -0.01232177 J/mol --- Total Energy: -0.01200571 J/mol
O     0.00000    0.00066    0.00000
H     0.75803    0.58077    0.00001
H    -0.75803    0.58077    0.00001
O     2.50000    0.00066    0.00000
H     3.25079    0.58076    0.00000
H     1.74195    0.58077    0.00000
O    -2.50000    0.00066    0.00000
H    -1.74195    0.58077    0.00000
H    -3.25079    0.58076    0.00000
O    -0.00000    2.50066    0.00000
H     0.75804    3.08071    0.00000
H    -0.75804    3.08071    0.00000
O     0.00000   -2.49934    0.00000
H     0.75803   -1.91920    0.00000
H    -0.75803   -1.91920    0.00000
O     2.50000    2.50066    0.00000
H     3.25081    3.08070    0.00000
H     1.74195    3.08071    0.00000
O    -2.50000   -2.49933    0.00000
H    -1.74196   -1.91920    0.00000
H    -3.25079   -1.91923    0.00000
O     2.50000   -2.49933    0.00000
H     3.25079   -1.91923    0.00000
H     1.74196   -1.91920    0.00000
O    -2.50000    2.50066    0.00000
H    -1.74195    3.08071    0.00000
H    -3.25081    3.08070    0.00000
O     0.00000    0.00019    2.50018
H     0.75575    0.58453    3.08452
H    -0.75575    0.58453    3.08452
30
Step: 13 --- Kinetic Energy: 0.00037298 J/mol --- Potential Energy: -0.01237867 J/mol --- Total Energy: -0.01200570 J/mol
O     0.00000    0.00077    0.00000
H     0.75803    0.57986    0.00001
H    -0.75803    0.57986    0.00001
O     2.50000    0.00078    0.00000
H     3.24952    0.57983    0.00000
H     1.74195    0.57986    0.00000
O    -2.50000    0.00078    0.00000
H    -1.74195    0.57986    0.00000
H    -3.24952    0.57983    0.00000
O    -0.00000    2.50077    0.00000
H     0.75804    3.07979    0.00000
H    -0.75804    3.07979    0.00000
O     0.00000   -2.49922    0.00000
H     0.75803   -1.92011    0.00000
H    -0.75803   -1.92011    0.00000
O     2.50000    2.50077    0.00000
H     3.24954    3.07977    0.00000
H     1.74195    3.07979    0.00000
O    -2.50000   -2.49922    0.00000
H    -1.74196   -1.92011    0.00000
H    -3.24952   -1.92015    0.00000
O     2.50000   -2.49922    0.00000
H     3.24952   -1.92015    0.00000
H     1.74196   -1.92011    0.00000
O    -2.50000    2.50077    0.00000
H    -1.74195    3.07979    0.00000
H    -3.24954    3.07977    0.00000
O     0.00000    0.00022    2.50022
H     0.75536    0.58427    3.08426
H    -0.75536    0.58427    3.08426
30
Step: 14 --- Kinetic Energy: 0.00043516 J/mol --- Potential Energy: -0.01244085 J/mol --- Total Energy: -0.01200569 J/mol
O     0.00000    0.00090    0.00000
H     0.75802    0.57888    0.00001
H    -0.75802    0.57888    0.00001
O     2.50000    0.00090    0.00000
H     3.24815    0.57883    0.00000
H     1.74195    0.57888    0.00001
O    -2.50000    0.00090    0.00000
H    -1.74195    0.57888    0.00001
H    -3.24815    0.57883    0.00000
O    -0.00000    2.50090    0.00000
H     0.75804    3.07879    0.00000
H    -0.75804    3.07879    0.00000
O     0.00000   -2.49909    0.00000
H     0.75802   -1.92109    0.00000
H    -0.75802   -1.92109    0.00000
O     2.50000    2.50090    0.00000
H     3.24817    3.07876    0.00000
H     1.74195    3.07879    0.00000
O    -2.50000   -2.49909    0.00000
H    -1.74196   -1.92109    0.00000
H    -3.24815   -1.92114    0.00000
O     2.50000   -2.49909    0.00000
H     3.24815   -1.92114    0.00000
H     1.74196   -1.92109    0.00000
O    -2.50000    2.50090    0.00000
H    -1.74195    3.07879    0.00000
H    -3.24817    3.07876    0.00000
O     0.00000    0.00025    2.50025
H     0.75493    0.58399    3.08398
H    -0.75493    0.58399    3.08398
30
Step: 15 --- Kinetic Energy: 0.00050281 J/mol --- Potential Energy: -0.01250848 J/mol --- Total Energy: -0.01200567 J/mol
O     0.00000    0.00103    0.00000
H     0.75801    0.57782    0.00001
H    -0.75801    0.57782    0.00001
O     2.50000    0.00104    0.00000
H     3.24666    0.57775    0.00000
H     1.74196    0.57782    0.00001
O    -2.50000    0.00104    0.00000
H    -1.74196    0.57782    0.00001
H    -3.24666    0.57775    0.00000
O    -0.00000    2.50103    0.00000
H     0.75803    3.07772    0.00000
H    -0.75803    3.07772    0.00000
O     0.00000   -2.49896    0.00000
H     0.75802   -1.92214    0.00000
H    -0.75802   -1.92214    0.00000
O     2.50000    2.50103    0.00000
H     3.24669    3.07767    0.00000
H     1.74195    3.07772    0.00000
O    -2.50000   -2.49896    0.00000
H    -1.74196   -1.92214    0.00000
H    -3.24667   -1.92222    0.00000
O     2.50000   -2.49896    0.00000
H     3.24667   -1.92222    0.00000
H     1.74196   -1.92214    0.00000
O    -2.50000    2.50103    0.00000
H    -1.74195    3.07772    0.00000
H    -3.24669    3.07767    0.00000
O     0.00000    0.00029    2.50029
H     0.75448    0.58369    3.08368
H    -0.75448    0.58369    3.08368
30
Step: 16 --- Kinetic Energy: 0.00057611 J/mol --- Potential Energy: -0.01258176 J/mol --- Total Energy: -0.01200566 J/mol
O     0.00000    0.00117    0.00000
H     0.75800    0.57668    0.00002
H    -0.75800    0.57668    0.00002
O     2.50000    0.00118    0.00000
H     3.24507    0.57659    0.00000
H     1.74197    0.57669    0.00001
O    -2.50000    0.00118    0.00000
H    -1.74197    0.57669    0.00001
H    -3.24507    0.57659    0.00000
O    -0.00000    2.50117    0.00000
H     0.75802    3.07657    0.00000
H    -0.75802    3.07657    0.00000
O     0.00000   -2.49882    0.00000
H     0.75801   -1.92327    0.00000
H    -0.75801   -1.92327    0.00000
O     2.50000    2.50118    0.00000
H     3.24510    3.07650    0.00000
H     1.74196    3.07657    0.00000
O    -2.50000   -2.49881    0.00000
H    -1.74197   -1.92327    0.00000
H    -3.24507   -1.92338    0.00000
O     2.50000   -2.49881    0.00000
H     3.24507   -1.92338    0.00000
H     1.74197   -1.92327    0.00000
O    -2.50000    2.50118    0.00000
H    -1.74196    3.07657    0.00000
H    -3.24510    3.07650    0.00000
O     0.00000    0.00033    2.50033
H     0.75399    0.58337    3.08336
H    -0.75399    0.58337    3.08336
30
Step: 17 --- Kinetic Energy: 0.00065529 J/mol --- Potential Energy: -0.01266093 J/mol --- Total Energy: -0.01200564 J/mol
O     0.00000    0.00133    0.00000
H     0.75799    0.57547    0.00002
H    -0.75799    0.57547    0.00002
O     2.50000    0.00133    0.00000
H     3.24336    0.57535    0.00000
H     1.74198    0.57548    0.00001
O    -2.50000    0.00133    0.00000
H    -1.74198    0.57548    0.00001
H    -3.24336    0.57535    0.00000
O    -0.00000    2.50132    0.00000
H     0.75801    3.07535    0.00000
H    -0.75801    3.07535    0.00000
O     0.00000   -2.49866    0.00000
H     0.75799   -1.92447    0.00000
H    -0.75799   -1.92447    0.00000
O     2.50000    2.50133    0.00000
H     3.24340    3.07525    0.00000
H     1.74197    3.07535    0.00000
O    -2.50000   -2.49865    0.00000
H    -1.74198   -1.92447    0.00000
H    -3.24337   -1.92462    0.00000
O     2.50000   -2.49865    0.00000
H     3.24337   -1.92462    0.00000
H     1.74198   -1.92447    0.00000
O    -2.50000    2.50133    0.00000
H    -1.74197    3.07535    0.00000
H    -3.24340    3.07525    0.00000
O     0.00000    0.00037    2.50037
H     0.75347    0.58303    3.08301
H    -0.75347    0.58303    3.08301
30
Step: 18 --- Kinetic Energy: 0.00074062 J/mol --- Potential Energy: -0.01274624 J/mol --- Total Energy: -0.01200562 J/mol
O     0.00000    0.00149    0.00000
H     0.75797    0.57419    0.00002
H    -0.75797    0.57419    0.00002
O     2.50000    0.00150    0.00000
H     3.24154    0.57403    0.00000
H     1.74200    0.57419    0.00001
O    -2.50000    0.00150    0.00000
H    -1.74200    0.57419    0.00001
H    -3.24154    0.57403    0.00000
O     0.00000    2.50149    0.00000
H     0.75799    3.07405    0.00000
H    -0.75799    3.07405    0.00000
O     0.00000   -2.49850    0.00000
H     0.75797   -1.92575    0.00000
H    -0.75797   -1.92575    0.00000
O     2.50000    2.50150    0.00000
H     3.24158    3.07391    0.00000
H     1.74198    3.07405    0.00000
O    -2.50000   -2.49849    0.00000
H    -1.74200   -1.92575    0.00000
H    -3.24155   -1.92594    0.00000
O     2.50000   -2.49849    0.00000
H     3.24155   -1.92594    0.00000
H     1.74200   -1.92575    0.00000
O    -2.50000    2.50150    0.00000
H    -1.74198    3.07405    0.00000
H    -3.24158    3.07391    0.00000
O     0.00000    0.00042    2.50041
H     0.75291    0.58267    3.08265
H    -0.75291    0.58267    3.08265
30
Step: 19 --- Kinetic Energy: 0.00083237 J/mol --- Potential Energy: -0.01283798 J/mol --- Total Energy: -0.01200560 J/mol
O     0.00000    0.00166    0.00000
H     0.75794    0.57283    0.00002
H    -0.75794    0.57283    0.00002
O     2.50000    0.00167    0.00000
H     3.23961    0.57262    0.00000
H     1.74202    0.57283    0.00001
O    -2.50000    0.00167    0.00000
H    -1.74202    0.57283    0.00001
H    -3.23961    0.57262    0.00000
O     0.00000    2.50166    0.00000
H     0.75797    3.07267    0.00000
H    -0.75797    3.07267    0.00000
O    -0.00000   -2.49833    0.00000
H     0.75795   -1.92710    0.00000
H    -0.75795   -1.92710    0.00000
O     2.50000    2.50167    0.00000
H     3.23965    3.07249    0.00000
H     1.74201    3.07267    0.00000
O    -2.50000   -2.49831    0.00000
H    -1.74203   -1.92711    0.00000
H    -3.23962   -1.92734    0.00000
O     2.50000   -2.49831    0.00000
H     3.23962   -1.92734    0.00000
H     1.74203   -1.92711    0.00000
O    -2.50000    2.50167    0.00000
H    -1.74201    3.07267    0.00000
H    -3.23965    3.07249    0.00000
O     0.00000    0.00047    2.50046
H     0.75233    0.58229    3.08226
H    -0.75233    0.58229    3.08226
30
Step: 20 --- Kinetic Energy: 0.00093086 J/mol --- Potential Energy: -0.01293644 J/mol --- Total Energy: -0.01200558 J/mol
O     0.00000    0.00184    0.00000
H     0.75791    0.57139    0.00003
H    -0.75791    0.57139    0.00003
O     2.50000    0.00186    0.00000
H     3.23756    0.57112    0.00000
H     1.74205    0.57140    0.00001
O    -2.50000    0.00186    0.00000
H    -1.74205    0.57140    0.00001
H    -3.23756    0.57112    0.00000
O     0.00000    2.50184    0.00000
H     0.75794    3.07122    0.00000
H    -0.75794    3.07122    0.00000
O    -0.00000   -2.49814    0.00000
H     0.75791   -1.92853    0.00000
H    -0.75791   -1.92853    0.00000
O     2.50000    2.50185    0.00000
H     3.23761    3.07098    0.00000
H     1.74203    3.07122    0.00000
O    -2.50001   -2.49813    0.00000
H    -1.74206   -1.92853    0.00000
H    -3.23757   -1.92883    0.00000
O     2.50001   -2.49813    0.00000
H     3.23757   -1.92883    0.00000
H     1.74206   -1.92853    0.00000
O    -2.50000    2.50185    0.00000
H    -1.74203    3.07122    0.00000
H    -3.23761    3.07098    0.00000
O     0.00000    0.00052    2.50051
H     0.75171    0.58188    3.08185
H    -0.75171    0.58188    3.08185
30
Step: 21 --- Kinetic Energy: 0.00103644 J/mol --- Potential Energy: -0.01304199 J/mol --- Total Energy: -0.01200556 J/mol
O     0.00000    0.00203    0.00000
H     0.75787    0.56988    0.00003
H    -0.75787    0.56988    0.00003
O     2.50001    0.00205    0.00000
H     3.23538    0.56954    0.00000
H     1.74209    0.56988    0.00001
O    -2.50001    0.00205    0.00000
H    -1.74209    0.56988    0.00001
H    -3.23538    0.56954    0.00000
O     0.00000    2.50203    0.00000
H     0.75790    3.06968    0.00000
H    -0.75790    3.06968    0.00000
O    -0.00000   -2.49795    0.00000
H     0.75787   -1.93004    0.00001
H    -0.75787   -1.93004    0.00001
O     2.50001    2.50205    0.00000
H     3.23544    3.06938    0.00000
H     1.74207    3.06969    0.00000
O    -2.50001   -2.49793    0.00000
H    -1.74209   -1.93004    0.00000
H    -3.23540   -1.93041    0.00000
O     2.50001   -2.49793    0.00000
H     3.23540   -1.93041    0.00000
H     1.74209   -1.93004    0.00000
O    -2.50001    2.50205    0.00000
H    -1.74207    3.06969    0.00000
H    -3.23544    3.06938    0.00000
O     0.00000    0.00057    2.50057
H     0.75106    0.58146    3.08142
H    -0.75106    0.58146    3.08142
30
Step: 22 --- Kinetic Energy: 0.00114948 J/mol --- Potential Energy: -0.01315501 J/mol --- Total Energy: -0.01200553 J/mol
O     0.00000    0.00223    0.00000
H     0.75782    0.56829    0.00003
H    -0.75782    0.56829    0.00003
O     2.50001    0.00226    0.00000
H     3.23309    0.56787    0.00000
H     1.74213    0.56830    0.00001
O    -2.50001    0.00226    0.00000
H    -1.74213    0.56830    0.00001
H    -3.23309    0.56787    0.00000
O     0.00000    2.50223    0.00000
H     0.75786    3.06808    0.00000
H    -0.75786    3.06808    0.00000
O    -0.00000   -2.49775    0.00000
H     0.75783   -1.93162    0.00001
H    -0.75783   -1.93162    0.00001
O     2.50001    2.50225    0.00000
H     3.23315    3.06769    0.00000
H     1.74211    3.06808    0.00000
O    -2.50001   -2.49772    0.00000
H    -1.74214   -1.93162    0.00000
H    -3.23310   -1.93207    0.00000
O     2.50001   -2.49772    0.00000
H     3.23310   -1.93207    0.00000
H     1.74214   -1.93162    0.00000
O    -2.50001    2.50225    0.00000
H    -1.74211    3.06808    0.00000
H    -3.23315    3.06769    0.00000
O     0.00000    0.00063    2.50062
H     0.75037    0.58101    3.08097
H    -0.75037    0.58101    3.08097
30
Step: 23 --- Kinetic Energy: 0.00127043 J/mol --- Potential Energy: -0.01327593 J/mol --- Total Energy: -0.01200550 J/mol
O     0.00000    0.00244    0.00000
H     0.75776    0.56662    0.00003
H    -0.75776    0.56662    0.00003
O     2.50002    0.00247    0.00000
H     3.23067    0.56611    0.00000
H     1.74219    0.56663    0.00001
O    -2.50002    0.00247    0.00000
H    -1.74219    0.56663    0.00001
H    -3.23067    0.56611    0.00000
O     0.00000    2.50244    0.00000
H     0.75780    3.06639    0.00000
H    -0.75780    3.06639    0.00000
O    -0.00000   -2.49754    0.00000
H     0.75777   -1.93328    0.00001
H    -0.75777   -1.93328    0.00001
O     2.50002    2.50247    0.00000
H     3.23074    3.06591    0.00000
H     1.74217    3.06639    0.00000
O    -2.50002   -2.49750    0.00000
H    -1.74220   -1.93328    0.00000
H    -3.23068   -1.93383    0.00000
O     2.50002   -2.49750    0.00000
H     3.23068   -1.93383    0.00000
H     1.74220   -1.93328    0.00000
O    -2.50002    2.50247    0.00000
H    -1.74217    3.06639    0.00000
H    -3.23074    3.06591    0.00000
O     0.00000    0.00069    2.50068
H     0.74965    0.58054    3.08050
H    -0.74965    0.58054    3.08050
30
Step: 24 --- Kinetic Energy: 0.00139977 J/mol --- Potential Energy: -0.01340523 J/mol --- Total Energy: -0.01200546 J/mol
O     0.00000    0.00266    0.00000
H     0.75769    0.56488    0.00004
H    -0.75769    0.56488    0.00004
O     2.50002    0.00270    0.00000
H     3.22812    0.56425    0.00000
H     1.74225    0.56488    0.00002
O    -2.50002    0.00270    0.00000
H    -1.74225    0.56488    0.00002
H    -3.22812    0.56425    0.00000
O     0.00000    2.50266    0.00000
H     0.75774    3.06462    0.00000
H    -0.75774    3.06462    0.00000
O    -0.00000   -2.49731    0.00000
H     0.75770   -1.93501    0.00001
H    -0.75770   -1.93501    0.00001
O     2.50002    2.50270    0.00000
H     3.22819    3.06404    0.00000
H     1.74223    3.06463    0.00000
O    -2.50002   -2.49728    0.00000
H    -1.74226   -1.93502    0.00000
H    -3.22814   -1.93568    0.00000
O     2.50002   -2.49728    0.00000
H     3.22814   -1.93568    0.00000
H     1.74226   -1.93502    0.00000
O    -2.50002    2.50270    0.00000
H    -1.74223    3.06463    0.00000